    -----------------------------------------------------------------------
          Psi4: An Open-Source Ab Initio Electronic Structure Package
                              Psi4 1.0.24 Driver

                          Git: Rev {master} 45aac03 dirty

    J. M. Turney, A. C. Simmonett, R. M. Parrish, E. G. Hohenstein,
    F. A. Evangelista, J. T. Fermann, B. J. Mintz, L. A. Burns, J. J. Wilke,
    M. L. Abrams, N. J. Russ, M. L. Leininger, C. L. Janssen, E. T. Seidl,
    W. D. Allen, H. F. Schaefer, R. A. King, E. F. Valeev, C. D. Sherrill,
    and T. D. Crawford, WIREs Comput. Mol. Sci. 2, 556-565 (2012)
    (doi: 10.1002/wcms.93)

                         Additional Contributions by
    A. E. DePrince, U. Bozkaya, A. Yu. Sokolov, D. G. A. Smith, R. Di Remigio,
    R. M. Richard, J. F. Gonthier, H. R. McAlexander, M. Saitow, and
    B. P. Pritchard
    -----------------------------------------------------------------------


    Psi4 started on: Mon May  1 19:06:09 2017

    Process ID:   6479
    PSI4DATADIR: /home/limvt/local/miniconda2/share/psi4
    Memory level set to 256.000 MB

  ==> Input File <==

--------------------------------------------------------------------------
memory 5.0 Gb
molecule GBI_4 {
  1 1
  C     1.9755    -0.6634      0.6120
  C     0.6716    -0.2341      0.8727
  C     2.7598    -1.2347      1.6230
  C     0.1134    -0.3391      2.1517
  C     2.2110    -1.3574      2.9074
  C     0.9250    -0.8945      3.1420
  C     1.8582    -1.7041      5.0055
  C     2.9433    -2.7389      6.8778
  N     2.7538    -1.8889      4.0513
  N     0.7300    -1.1137      4.4810
  N     3.8398    -3.3788      6.1228
  N     3.0429    -2.8516      8.2071
  N     1.9430    -2.0063      6.3499
  H     2.3885    -0.5555     -0.3901
  H     0.0785     0.1966      0.0659
  H     3.7723    -1.5696      1.4192
  H    -0.8976     0.0006      2.3580
  H    -0.1016    -0.8885      5.0044
  H     3.7889    -3.2783      5.1133
  H     4.5579    -3.9599      6.5275
  H     3.7886    -3.3930      8.6212
  H     2.4209    -2.3467      8.8225
  H     1.2389    -1.6940      7.0070
  units angstrom
}

set basis def2-SV(P)
set df_basis_mp2 def2-SV(P)-ri
set freeze_core True
optimize('mp2')
--------------------------------------------------------------------------

  Memory set to   5.000 GiB by Python script.
gradient() will perform analytic gradient computation.
    SCF Algorithm Type (re)set to DF.

*** tstart() called on c-19-414.local
*** at Mon May  1 19:06:10 2017


         ---------------------------------------------------------
                                   SCF
            by Justin Turney, Rob Parrish, and Andy Simmonett
                              RHF Reference
                        1 Threads,   5000 MiB Core
         ---------------------------------------------------------

  ==> Geometry <==

    Molecular point group: c1
    Full point group: C1

    Geometry (in Angstrom), charge = 1, multiplicity = 1:

       Center              X                  Y                   Z               Mass       
    ------------   -----------------  -----------------  -----------------  -----------------
           C         -0.040838471911     0.955081666812    -3.546366971349    12.000000000000
           C         -1.344738471911     1.384381666812    -3.285666971349    12.000000000000
           C          0.743461528089     0.383781666812    -2.535366971349    12.000000000000
           C         -1.902938471911     1.279381666812    -2.006666971349    12.000000000000
           C          0.194661528089     0.261081666812    -1.250966971349    12.000000000000
           C         -1.091338471911     0.723981666812    -1.016366971349    12.000000000000
           C         -0.158138471911    -0.085618333188     0.847133028651    12.000000000000
           C          0.926961528089    -1.120418333188     2.719433028651    12.000000000000
           N          0.737461528089    -0.270418333188    -0.107066971349    14.003074004780
           N         -1.286338471911     0.504781666812     0.322633028651    14.003074004780
           N          1.823461528089    -1.760318333188     1.964433028651    14.003074004780
           N          1.026561528089    -1.233118333188     4.048733028651    14.003074004780
           N         -0.073338471911    -0.387818333188     2.191533028651    14.003074004780
           H          0.372161528089     1.062981666812    -4.548466971349     1.007825032070
           H         -1.937838471911     1.815081666812    -4.092466971349     1.007825032070
           H          1.755961528089     0.048881666812    -2.739166971349     1.007825032070
           H         -2.913938471911     1.619081666812    -1.800366971349     1.007825032070
           H         -2.117938471911     0.729981666812     0.846033028651     1.007825032070
           H          1.772561528089    -1.659818333188     0.954933028651     1.007825032070
           H          2.541561528089    -2.341418333188     2.369133028651     1.007825032070
           H          1.772261528089    -1.774518333188     4.462833028651     1.007825032070
           H          0.404561528089    -0.728218333188     4.664133028651     1.007825032070
           H         -0.777438471911    -0.075518333188     2.848633028651     1.007825032070

  Running in c1 symmetry.

  Rotational constants: A =      0.09176  B =      0.01399  C =      0.01221 [cm^-1]
  Rotational constants: A =   2750.76642  B =    419.45708  C =    366.01613 [MHz]
  Nuclear repulsion =  757.937666673979265

  Charge       = 1
  Multiplicity = 1
  Electrons    = 92
  Nalpha       = 46
  Nbeta        = 46

  ==> Algorithm <==

  SCF Algorithm Type is DF.
  DIIS enabled.
  MOM disabled.
  Fractional occupation disabled.
  Guess Type is SAD.
  Energy threshold   = 1.00e-10
  Density threshold  = 1.00e-10
  Integral threshold = 0.00e+00

  ==> Primary Basis <==

  Basis Set: DEF2-SV(P)
    Number of shells: 98
    Number of basis function: 202
    Number of Cartesian functions: 215
    Spherical Harmonics?: true
    Max angular momentum: 2

  ==> Pre-Iterations <==

   -------------------------------------------------------
    Irrep   Nso     Nmo     Nalpha   Nbeta   Ndocc  Nsocc
   -------------------------------------------------------
     A        202     202       0       0       0       0
   -------------------------------------------------------
    Total     202     202      46      46      46       0
   -------------------------------------------------------

  ==> Integral Setup <==

  ==> DFJK: Density-Fitted J/K Matrices <==

    J tasked:                  Yes
    K tasked:                  Yes
    wK tasked:                  No
    OpenMP threads:              1
    Integrals threads:           1
    Memory (MB):              3576
    Algorithm:                Core
    Integral Cache:           NONE
    Schwarz Cutoff:          1E-12
    Fitting Condition:       1E-12

   => Auxiliary Basis Set <=

  Basis Set: 
    Number of shells: 385
    Number of basis function: 1165
    Number of Cartesian functions: 1377
    Spherical Harmonics?: true
    Max angular momentum: 4

  Minimum eigenvalue in the overlap matrix is 2.4061239801E-04.
  Using Symmetric Orthogonalization.
  SCF Guess: Superposition of Atomic Densities via on-the-fly atomic UHF.

  ==> Iterations <==

                           Total Energy        Delta E     RMS |[F,P]|

   @DF-RHF iter   0:  -584.86367796783611   -5.84864e+02   3.70872e-02 
   @DF-RHF iter   1:  -580.09418604707639    4.76949e+00   2.98470e-03 
   @DF-RHF iter   2:  -580.31424091515305   -2.20055e-01   1.53948e-03 DIIS
   @DF-RHF iter   3:  -580.35978964695437   -4.55487e-02   5.24563e-04 DIIS
   @DF-RHF iter   4:  -580.36897618831267   -9.18654e-03   1.71513e-04 DIIS
   @DF-RHF iter   5:  -580.37002224353432   -1.04606e-03   6.44334e-05 DIIS
   @DF-RHF iter   6:  -580.37026815113086   -2.45908e-04   2.44858e-05 DIIS
   @DF-RHF iter   7:  -580.37030203204108   -3.38809e-05   9.94071e-06 DIIS
   @DF-RHF iter   8:  -580.37030886676189   -6.83472e-06   4.19950e-06 DIIS
   @DF-RHF iter   9:  -580.37031074256561   -1.87580e-06   1.84315e-06 DIIS
   @DF-RHF iter  10:  -580.37031115138802   -4.08822e-07   6.43921e-07 DIIS
   @DF-RHF iter  11:  -580.37031119136850   -3.99805e-08   2.38195e-07 DIIS
   @DF-RHF iter  12:  -580.37031119628523   -4.91673e-09   1.11601e-07 DIIS
   @DF-RHF iter  13:  -580.37031119719654   -9.11314e-10   4.06930e-08 DIIS
   @DF-RHF iter  14:  -580.37031119734979   -1.53250e-10   1.58163e-08 DIIS
   @DF-RHF iter  15:  -580.37031119736980   -2.00089e-11   7.71357e-09 DIIS
   @DF-RHF iter  16:  -580.37031119737435   -4.54747e-12   2.77433e-09 DIIS
   @DF-RHF iter  17:  -580.37031119737344    9.09495e-13   1.19889e-09 DIIS
   @DF-RHF iter  18:  -580.37031119737389   -4.54747e-13   6.57106e-10 DIIS
   @DF-RHF iter  19:  -580.37031119737389    0.00000e+00   2.05037e-10 DIIS
   @DF-RHF iter  20:  -580.37031119737389    0.00000e+00   9.45927e-11 DIIS

  ==> Post-Iterations <==

    Orbital Energies (a.u.)
    -----------------------

    Doubly Occupied:                                                      

       1A    -15.820710     2A    -15.792547     3A    -15.774886  
       4A    -15.754717     5A    -15.692294     6A    -11.611584  
       7A    -11.518253     8A    -11.389810     9A    -11.372507  
      10A    -11.345664    11A    -11.340665    12A    -11.337878  
      13A    -11.330915    14A     -1.551401    15A     -1.486467  
      16A     -1.408179    17A     -1.376596    18A     -1.308271  
      19A     -1.238286    20A     -1.135970    21A     -1.105820  
      22A     -1.068041    23A     -1.013596    24A     -0.995099  
      25A     -0.966802    26A     -0.931217    27A     -0.924269  
      28A     -0.882587    29A     -0.870617    30A     -0.856799  
      31A     -0.833950    32A     -0.825867    33A     -0.797578  
      34A     -0.757621    35A     -0.732722    36A     -0.721202  
      37A     -0.709626    38A     -0.659842    39A     -0.629767  
      40A     -0.624754    41A     -0.616908    42A     -0.582414  
      43A     -0.576819    44A     -0.559540    45A     -0.423850  
      46A     -0.417680  

    Virtual:                                                              

      47A     -0.032506    48A     -0.017266    49A      0.019287  
      50A      0.028603    51A      0.043690    52A      0.055782  
      53A      0.073357    54A      0.087998    55A      0.105373  
      56A      0.112694    57A      0.131687    58A      0.150250  
      59A      0.168063    60A      0.176668    61A      0.193406  
      62A      0.218034    63A      0.253297    64A      0.269357  
      65A      0.294402    66A      0.306673    67A      0.327963  
      68A      0.330469    69A      0.352287    70A      0.355469  
      71A      0.375539    72A      0.378995    73A      0.394374  
      74A      0.443506    75A      0.449956    76A      0.481052  
      77A      0.493074    78A      0.509175    79A      0.525930  
      80A      0.555715    81A      0.567550    82A      0.570133  
      83A      0.581801    84A      0.587655    85A      0.590231  
      86A      0.592943    87A      0.607953    88A      0.616788  
      89A      0.646625    90A      0.657196    91A      0.684851  
      92A      0.695044    93A      0.744120    94A      0.748573  
      95A      0.767518    96A      0.786647    97A      0.805995  
      98A      0.811214    99A      0.826475   100A      0.834249  
     101A      0.834495   102A      0.844255   103A      0.852588  
     104A      0.860608   105A      0.873860   106A      0.879057  
     107A      0.889109   108A      0.904015   109A      0.919571  
     110A      0.929837   111A      0.945108   112A      0.950483  
     113A      0.963368   114A      0.966543   115A      0.980666  
     116A      1.003991   117A      1.014793   118A      1.022932  
     119A      1.054813   120A      1.090638   121A      1.110599  
     122A      1.143532   123A      1.170264   124A      1.206690  
     125A      1.221292   126A      1.265602   127A      1.296683  
     128A      1.325508   129A      1.339224   130A      1.382376  
     131A      1.390170   132A      1.401892   133A      1.410226  
     134A      1.467491   135A      1.485475   136A      1.519108  
     137A      1.529535   138A      1.547638   139A      1.556178  
     140A      1.558681   141A      1.584853   142A      1.624249  
     143A      1.652165   144A      1.666923   145A      1.672372  
     146A      1.675096   147A      1.726544   148A      1.916376  
     149A      1.959841   150A      1.981249   151A      2.049169  
     152A      2.063994   153A      2.101140   154A      2.131214  
     155A      2.157785   156A      2.167187   157A      2.189360  
     158A      2.191075   159A      2.228051   160A      2.230967  
     161A      2.246197   162A      2.259117   163A      2.263199  
     164A      2.298475   165A      2.320587   166A      2.369877  
     167A      2.398616   168A      2.427005   169A      2.465084  
     170A      2.488107   171A      2.504736   172A      2.523155  
     173A      2.611617   174A      2.622940   175A      2.654582  
     176A      2.672243   177A      2.689410   178A      2.706726  
     179A      2.714807   180A      2.729958   181A      2.786551  
     182A      2.802305   183A      2.833935   184A      2.882660  
     185A      2.894296   186A      2.924125   187A      2.927812  
     188A      2.984689   189A      2.986592   190A      3.009521  
     191A      3.038373   192A      3.066875   193A      3.094661  
     194A      3.111031   195A      3.197385   196A      3.306950  
     197A      3.365261   198A      3.397558   199A      3.524784  
     200A      3.585037   201A      3.648353   202A      3.825402  

    Final Occupation by Irrep:
              A 
    DOCC [    46 ]

  Energy converged.

  @DF-RHF Final Energy:  -580.37031119737389

   => Energetics <=

    Nuclear Repulsion Energy =            757.9376666739792654
    One-Electron Energy =               -2277.2707772620160540
    Two-Electron Energy =                 938.9627993906626671
    DFT Exchange-Correlation Energy =       0.0000000000000000
    Empirical Dispersion Energy =           0.0000000000000000
    PCM Polarization Energy =               0.0000000000000000
    EFP Energy =                            0.0000000000000000
    Total Energy =                       -580.3703111973741215


  Saving occupied orbitals to File 180.

*** tstop() called on c-19-414.local at Mon May  1 19:06:39 2017
Module time:
	user time   =      20.29 seconds =       0.34 minutes
	system time =       0.96 seconds =       0.02 minutes
	total time  =         29 seconds =       0.48 minutes
Total time:
	user time   =      20.29 seconds =       0.34 minutes
	system time =       0.96 seconds =       0.02 minutes
	total time  =         29 seconds =       0.48 minutes


Properties will be evaluated at   0.000000,   0.000000,   0.000000 Bohr

Properties computed using the SCF density matrix

  Nuclear Dipole Moment: (a.u.)
     X:     0.8109      Y:    -1.2128      Z:     2.7554

  Electronic Dipole Moment: (a.u.)
     X:    -0.4504      Y:    -0.1745      Z:     2.1255

  Dipole Moment: (a.u.)
     X:     0.3605      Y:    -1.3873      Z:     4.8809     Total:     5.0870

  Dipole Moment: (Debye)
     X:     0.9163      Y:    -3.5262      Z:    12.4060     Total:    12.9299


  //>>>>>>>>>>>>>>>>>>>>>>>>>>>>>>>>>>>//
  //               DFMP2               //
  //<<<<<<<<<<<<<<<<<<<<<<<<<<<<<<<<<<<//


*** tstart() called on c-19-414.local
*** at Mon May  1 19:06:39 2017


*** tstop() called on c-19-414.local at Mon May  1 19:06:39 2017
Module time:
	user time   =       0.38 seconds =       0.01 minutes
	system time =       0.00 seconds =       0.00 minutes
	total time  =          0 seconds =       0.00 minutes
Total time:
	user time   =      20.70 seconds =       0.35 minutes
	system time =       0.96 seconds =       0.02 minutes
	total time  =         29 seconds =       0.48 minutes
	 --------------------------------------------------------
	                          DF-MP2                         
	      2nd-Order Density-Fitted Moller-Plesset Theory     
	              RMP2 Wavefunction,   1 Threads             
	                                                         
	        Rob Parrish, Justin Turney, Andy Simmonett,      
	           Ed Hohenstein, and C. David Sherrill          
	 --------------------------------------------------------

   => Auxiliary Basis Set <=

  Basis Set: DEF2-SV(P)-RI
    Number of shells: 268
    Number of basis function: 764
    Number of Cartesian functions: 865
    Spherical Harmonics?: true
    Max angular momentum: 3

	 --------------------------------------------------------
	                 NBF =   202, NAUX =   764
	 --------------------------------------------------------
	   CLASS    FOCC     OCC    AOCC    AVIR     VIR    FVIR
	   PAIRS      13      46      33     156     156       0
	 --------------------------------------------------------

DGAS Warning! /src/lib/libfock/apps.cc:80 is not currently checking restricted

         ------------------------------------------------------------
                                     CPHF                           
                                  Rob Parrish                       
         ------------------------------------------------------------

  ==> Geometry <==

    Molecular point group: c1
    Full point group: C1

    Geometry (in Angstrom), charge = 1, multiplicity = 1:

       Center              X                  Y                   Z               Mass       
    ------------   -----------------  -----------------  -----------------  -----------------
           C         -0.040838471911     0.955081666812    -3.546366971349    12.000000000000
           C         -1.344738471911     1.384381666812    -3.285666971349    12.000000000000
           C          0.743461528089     0.383781666812    -2.535366971349    12.000000000000
           C         -1.902938471911     1.279381666812    -2.006666971349    12.000000000000
           C          0.194661528089     0.261081666812    -1.250966971349    12.000000000000
           C         -1.091338471911     0.723981666812    -1.016366971349    12.000000000000
           C         -0.158138471911    -0.085618333188     0.847133028651    12.000000000000
           C          0.926961528089    -1.120418333188     2.719433028651    12.000000000000
           N          0.737461528089    -0.270418333188    -0.107066971349    14.003074004780
           N         -1.286338471911     0.504781666812     0.322633028651    14.003074004780
           N          1.823461528089    -1.760318333188     1.964433028651    14.003074004780
           N          1.026561528089    -1.233118333188     4.048733028651    14.003074004780
           N         -0.073338471911    -0.387818333188     2.191533028651    14.003074004780
           H          0.372161528089     1.062981666812    -4.548466971349     1.007825032070
           H         -1.937838471911     1.815081666812    -4.092466971349     1.007825032070
           H          1.755961528089     0.048881666812    -2.739166971349     1.007825032070
           H         -2.913938471911     1.619081666812    -1.800366971349     1.007825032070
           H         -2.117938471911     0.729981666812     0.846033028651     1.007825032070
           H          1.772561528089    -1.659818333188     0.954933028651     1.007825032070
           H          2.541561528089    -2.341418333188     2.369133028651     1.007825032070
           H          1.772261528089    -1.774518333188     4.462833028651     1.007825032070
           H          0.404561528089    -0.728218333188     4.664133028651     1.007825032070
           H         -0.777438471911    -0.075518333188     2.848633028651     1.007825032070

  Nuclear repulsion =  757.937666673979265
  Reference energy  = -580.370311197373894

  ==> Basis Set <==

  Basis Set: DEF2-SV(P)
    Number of shells: 98
    Number of basis function: 202
    Number of Cartesian functions: 215
    Spherical Harmonics?: true
    Max angular momentum: 2

  ==> CGRSolver (by Rob Parrish) <==

   Number of roots    =         1
   Preconditioning    =    JACOBI
   Convergence cutoff =     1E-06
   Maximum iterations =       100

  ==> CPHFRHamiltonian (by Rob Parrish) <== 

  ==> DFJK: Density-Fitted J/K Matrices <==

    J tasked:                  Yes
    K tasked:                  Yes
    wK tasked:                  No
    OpenMP threads:              1
    Integrals threads:           1
    Memory (MB):              3576
    Algorithm:                Core
    Integral Cache:           NONE
    Schwarz Cutoff:          1E-12
    Fitting Condition:       1E-12

   => Auxiliary Basis Set <=

  Basis Set: 
    Number of shells: 385
    Number of basis function: 1165
    Number of Cartesian functions: 1377
    Spherical Harmonics?: true
    Max angular momentum: 4

  ==> CPHF Iterations <==

  => Iterations <=

             Iter  Converged  Remaining    Residual
  CGR           1          0          1   1.267E-01
  CGR           2          0          1   3.918E-02
  CGR           3          0          1   2.016E-02
  CGR           4          0          1   6.195E-03
  CGR           5          0          1   3.441E-03
  CGR           6          0          1   1.251E-03
  CGR           7          0          1   4.753E-04
  CGR           8          0          1   1.631E-04
  CGR           9          0          1   5.727E-05
  CGR          10          0          1   2.251E-05
  CGR          11          0          1   5.897E-06
  CGR          12          0          1   2.029E-06
  CGR          13          1          0   9.423E-07

    CGRSolver converged.

  ==> DFCorrGrad: Density-Fitted Correlated Gradients <==

    OpenMP threads:              1
    Integrals threads:           1
    Memory (MB):              3576
    Schwarz Cutoff:          0E+00
    Fitting Condition:       1E-12

   => Auxiliary Basis Set <=

  Basis Set: 
    Number of shells: 385
    Number of basis function: 1165
    Number of Cartesian functions: 1377
    Spherical Harmonics?: true
    Max angular momentum: 4

	-----------------------------------------------------------
	 ==================> DF-MP2 Energies <==================== 
	-----------------------------------------------------------
	 Reference Energy          =    -580.3703111973738942 [Eh]
	 Singles Energy            =      -0.0000000000000001 [Eh]
	 Same-Spin Energy          =      -0.4867069530234582 [Eh]
	 Opposite-Spin Energy      =      -1.2896969322786860 [Eh]
	 Correlation Energy        =      -1.7764038853021444 [Eh]
	 Total Energy              =    -582.1467150826759962 [Eh]
	-----------------------------------------------------------
	 ================> DF-SCS-MP2 Energies <================== 
	-----------------------------------------------------------
	 SCS Same-Spin Scale       =       0.3333333333333333 [-]
	 SCS Opposite-Spin Scale   =       1.2000000000000000 [-]
	 SCS Same-Spin Energy      =      -0.1622356510078194 [Eh]
	 SCS Opposite-Spin Energy  =      -1.5476363187344231 [Eh]
	 SCS Correlation Energy    =      -1.7098719697422426 [Eh]
	 SCS Total Energy          =    -582.0801831671161608 [Eh]
	-----------------------------------------------------------


  -Total Gradient:
     Atom            X                  Y                   Z
    ------   -----------------  -----------------  -----------------
       1       -0.014995349587     0.008473741070    -0.009594671927
       2        0.013055952933    -0.002688508423    -0.009528096188
       3        0.000270188417    -0.001429550165     0.009563671679
       4       -0.001413951342    -0.002322200171     0.007806091023
       5       -0.015127237315     0.007819935581     0.013538057966
       6        0.013482236106    -0.006503974782    -0.005359456110
       7        0.019412599467    -0.018880191075     0.054232904394
       8       -0.021035563112     0.017379099769    -0.001014455020
       9       -0.016917368827     0.008761156446    -0.025642691580
      10        0.005485983218     0.004143196849    -0.026251174613
      11        0.017545010231    -0.010939532702    -0.003841610310
      12        0.008297870493    -0.004117805351     0.002844312812
      13       -0.016476372455     0.013267235931    -0.012277502366
      14       -0.001966463372    -0.000193673921     0.003783323611
      15        0.002899850119    -0.001685187542     0.002518750826
      16       -0.006188943879     0.002620204815     0.000836988454
      17        0.005685975616    -0.002306921045    -0.000925274741
      18        0.008893335606    -0.003033235078    -0.002072735692
      19        0.000257905144    -0.005421306261     0.013202899321
      20       -0.005306465691     0.002428656375    -0.004880870904
      21       -0.003018155658     0.002709541361    -0.003828604938
      22        0.001588596981    -0.001850438189    -0.005571507053
      23        0.005570366905    -0.006230243489     0.002461651355


			-----------------------------------------
			 OPTKING 2.0: for geometry optimizations 
			  - R.A. King,  Bethel University        
			-----------------------------------------

	Internal coordinates to be generated automatically.
	Detected frag 1 with atoms:  1 2 3 4 5 6 7 8 9 10 11 12 13 14 15 16 17 18 19 20
	 21 22 23
	---Fragment 1 Bond Connectivity---
	 1 : 2 3 14
	 2 : 1 4 15
	 3 : 1 5 16
	 4 : 2 6 17
	 5 : 3 6 9
	 6 : 4 5 10
	 7 : 9 10 13
	 8 : 11 12 13
	 9 : 5 7
	 10 : 6 7 18
	 11 : 8 19 20
	 12 : 8 21 22
	 13 : 7 8 23
	 14 : 1
	 15 : 2
	 16 : 3
	 17 : 4
	 18 : 10
	 19 : 11
	 20 : 11
	 21 : 12
	 22 : 12
	 23 : 13

	---Fragment 1 Geometry and Gradient---
	 C          -0.0771735276        1.8048427848       -6.7016623426
	 C          -2.5411874323        2.6161022137       -6.2090107397
	 C           1.4049386784        0.7252422451       -4.7911492222
	 C          -3.5960325596        2.4176809697       -3.7920510158
	 C           0.3678569767        0.4933728486       -2.3639849771
	 C          -2.0623308302        1.3681270755       -1.9206552264
	 C          -0.2988384030       -0.1617952017        1.6008494223
	 C           1.7517034238       -2.1172838040        5.1389836609
	 N           1.3936003216       -0.5110165910       -0.2023272537
	 N          -2.4308274261        0.9538991072        0.6096880656
	 N           3.4458429019       -3.3265195564        3.7122404305
	 N           1.9399201466       -2.3302559392        7.6509966093
	 N          -0.1385896269       -0.7328704390        4.1413972353
	 H           0.7032833653        2.0087442346       -8.5953569003
	 H          -3.6619840017        3.4300072591       -7.7336417837
	 H           3.3182863880        0.0923729632       -5.1762754081
	 H          -5.5065456800        3.0596209371       -3.4022005145
	 H          -4.0023236782        1.3794654323        1.5987707235
	 H           3.3496558418       -3.1366020801        1.8045618994
	 H           4.8028552380       -4.4246394122        4.4770125965
	 H           3.3490889239       -3.3533536675        8.4335322009
	 H           0.7645104920       -1.3761332147        8.8139340715
	 H          -1.4691457971       -0.1427089677        5.3831362772
	            -0.0149953496        0.0084737411       -0.0095946719
	             0.0130559529       -0.0026885084       -0.0095280962
	             0.0002701884       -0.0014295502        0.0095636717
	            -0.0014139513       -0.0023222002        0.0078060910
	            -0.0151272373        0.0078199356        0.0135380580
	             0.0134822361       -0.0065039748       -0.0053594561
	             0.0194125995       -0.0188801911        0.0542329044
	            -0.0210355631        0.0173790998       -0.0010144550
	            -0.0169173688        0.0087611564       -0.0256426916
	             0.0054859832        0.0041431968       -0.0262511746
	             0.0175450102       -0.0109395327       -0.0038416103
	             0.0082978705       -0.0041178054        0.0028443128
	            -0.0164763725        0.0132672359       -0.0122775024
	            -0.0019664634       -0.0001936739        0.0037833236
	             0.0028998501       -0.0016851875        0.0025187508
	            -0.0061889439        0.0026202048        0.0008369885
	             0.0056859756       -0.0023069210       -0.0009252747
	             0.0088933356       -0.0030332351       -0.0020727357
	             0.0002579051       -0.0054213063        0.0132028993
	            -0.0053064657        0.0024286564       -0.0048808709
	            -0.0030181557        0.0027095414       -0.0038286049
	             0.0015885970       -0.0018504382       -0.0055715071
	             0.0055703669       -0.0062302435        0.0024616514

	Previous optimization step data not found.  Starting new optimization.

	---Fragment 1 Intrafragment Coordinates---
	 - Coordinate -           - BOHR/RAD -       - ANG/DEG -
	 H(9,19)          =         3.840242	       2.032168
	 R(1,2)           =         2.640495	       1.397290
	 R(1,3)           =         2.648066	       1.401296
	 R(1,14)          =         2.058341	       1.089227
	 R(2,4)           =         2.644572	       1.399447
	 R(2,15)          =         2.059885	       1.090044
	 R(3,5)           =         2.649609	       1.402113
	 R(3,16)          =         2.051766	       1.085748
	 R(4,6)           =         2.637409	       1.395657
	 R(4,17)          =         2.052835	       1.086313
	 R(5,6)           =         2.620601	       1.386762
	 R(5,9)           =         2.594940	       1.373183
	 R(6,10)          =         2.590369	       1.370764
	 R(7,9)           =         2.497549	       1.321646
	 R(7,10)          =         2.602413	       1.377137
	 R(7,13)          =         2.608868	       1.380553
	 R(8,11)          =         2.523481	       1.335369
	 R(8,12)          =         2.528041	       1.337782
	 R(8,13)          =         2.546564	       1.347583
	 R(10,18)         =         1.904991	       1.008078
	 R(11,19)         =         1.919520	       1.015766
	 R(11,20)         =         1.905840	       1.008527
	 R(12,21)         =         1.909148	       1.010278
	 R(12,22)         =         1.909021	       1.010210
	 R(13,23)         =         1.913266	       1.012457
	 B(1,2,4)         =         2.117270	     121.310657
	 B(1,2,15)        =         2.084082	     119.409098
	 B(1,3,5)         =         2.068617	     118.523009
	 B(1,3,16)        =         2.108618	     120.814923
	 B(2,1,3)         =         2.109400	     120.859694
	 B(2,1,14)        =         2.088679	     119.672508
	 B(2,4,6)         =         2.033529	     116.512623
	 B(2,4,17)        =         2.119192	     121.420777
	 B(3,1,14)        =         2.085104	     119.467643
	 B(3,5,6)         =         2.081426	     119.256942
	 B(3,5,9)         =         2.268220	     129.959448
	 B(4,2,15)        =         2.081816	     119.279291
	 B(4,6,5)         =         2.155633	     123.508687
	 B(4,6,10)        =         2.310444	     132.378688
	 B(5,3,16)        =         2.105931	     120.660966
	 B(5,6,10)        =         1.817071	     104.110506
	 B(5,9,7)         =         1.854014	     106.227165
	 B(6,4,17)        =         2.130451	     122.065823
	 B(6,5,9)         =         1.933539	     110.783610
	 B(6,10,7)        =         1.900805	     108.908126
	 B(6,10,18)       =         2.200374	     126.072155
	 B(7,10,18)       =         2.181988	     125.018723
	 B(7,13,8)        =         2.148469	     123.098234
	 B(7,13,23)       =         2.119734	     121.451838
	 B(8,11,19)       =         2.072416	     118.740688
	 B(8,11,20)       =         2.126155	     121.819698
	 B(8,12,21)       =         2.102947	     120.489998
	 B(8,12,22)       =         2.114573	     121.156136
	 B(8,13,23)       =         2.014916	     115.446169
	 B(9,7,10)        =         1.917838	     109.884036
	 B(9,7,13)        =         2.253432	     129.112153
	 B(10,7,13)       =         2.111868	     121.001114
	 B(11,8,12)       =         2.061731	     118.128466
	 B(11,8,13)       =         2.138103	     122.504283
	 B(12,8,13)       =         2.083251	     119.361468
	 B(19,11,20)      =         2.084597	     119.438589
	 B(21,12,22)      =         2.063045	     118.203759
	 D(1,2,4,6)       =        -0.002240	      -0.128325
	 D(1,2,4,17)      =         3.133863	     179.557099
	 D(1,3,5,6)       =        -0.016835	      -0.964547
	 D(1,3,5,9)       =         3.124742	     179.034520
	 D(2,1,3,5)       =        -0.008476	      -0.485629
	 D(2,1,3,16)      =         3.139740	     179.893869
	 D(2,4,6,5)       =        -0.024406	      -1.398356
	 D(2,4,6,10)      =         3.106395	     177.983331
	 D(3,1,2,4)       =         0.018322	       1.049758
	 D(3,1,2,15)      =        -3.129517	    -179.308120
	 D(3,5,6,4)       =         0.034386	       1.970164
	 D(3,5,6,10)      =        -3.098987	    -177.558879
	 D(3,5,9,7)       =         3.087612	     176.907155
	 D(4,2,1,14)      =        -3.125793	    -179.094763
	 D(4,6,5,9)       =        -3.107193	    -178.029072
	 D(4,6,10,7)      =         3.135409	     179.645700
	 D(4,6,10,18)     =        -0.000082	      -0.004677
	 D(5,3,1,14)      =         3.135634	     179.658599
	 D(5,6,4,17)      =         3.122715	     178.918418
	 D(5,6,10,7)      =        -0.015462	      -0.885888
	 D(5,6,10,18)     =         3.132233	     179.463736
	 D(5,9,7,10)      =         0.043033	       2.465593
	 D(5,9,7,13)      =        -3.088043	    -176.931834
	 D(6,4,2,15)      =        -3.137594	    -179.770903
	 D(6,5,3,16)      =         3.118145	     178.656560
	 D(6,5,9,7)       =        -0.053996	      -3.093715
	 D(6,10,7,9)      =        -0.017507	      -1.003072
	 D(6,10,7,13)     =         3.114566	     178.451472
	 D(7,13,8,11)     =        -0.156328	      -8.956929
	 D(7,13,8,12)     =         3.000828	     171.934784
	 D(8,13,7,9)      =        -0.169618	      -9.718395
	 D(8,13,7,10)     =         2.983513	     170.942687
	 D(9,5,3,16)      =        -0.023464	      -1.344372
	 D(9,5,6,10)      =         0.042619	       2.441886
	 D(9,7,10,18)     =         3.118063	     178.651868
	 D(9,7,13,23)     =         2.984851	     171.019360
	 D(10,6,4,17)     =        -0.029669	      -1.699894
	 D(10,7,13,23)    =        -0.145204	      -8.319559
	 D(11,8,12,21)    =         0.019903	       1.140347
	 D(11,8,12,22)    =         3.082371	     176.606845
	 D(11,8,13,23)    =         2.973100	     170.346096
	 D(12,8,11,19)    =        -3.111626	    -178.283009
	 D(12,8,11,20)    =         0.036433	       2.087468
	 D(12,8,13,23)    =        -0.152929	      -8.762192
	 D(13,7,10,18)    =        -0.033049	      -1.893588
	 D(13,8,11,19)    =         0.045348	       2.598238
	 D(13,8,11,20)    =        -3.089779	    -177.031285
	 D(13,8,12,21)    =        -3.136573	    -179.712392
	 D(13,8,12,22)    =        -0.074105	      -4.245894
	 D(14,1,2,15)     =         0.009553	       0.547359
	 D(14,1,3,16)     =         0.000665	       0.038097
	 D(15,2,4,17)     =        -0.001492	      -0.085479
	 R(9,11)          =         5.240477	       2.773141

	Current energy   :      -582.1467150827

	Generating empirical Hessian (Schlegel '84) for each fragment.
	Taking RFO optimization step.
	Going to follow RFO solution 1.
	Using RFO vector 1.
	Norm of target step-size    0.35772
	Projected energy change by RFO approximation:        -0.0215279447

	Back-transformation to cartesian coordinates...
	Could not converge backtransformation.
	Using first guess instead.

	--- Internal Coordinate Step in ANG or DEG, aJ/ANG or AJ/DEG ---
	 ---------------------------------------------------------------------------
	   Coordinate                Previous        Force       Change         New 
	   ----------                --------       ------       ------       ------
	    1 H(9,19)         =      2.032168    -0.044894    -0.032373     1.999795
	    2 R(1,2)          =      1.397290     0.159909     0.022775     1.420065
	    3 R(1,3)          =      1.401296    -0.053402    -0.007855     1.393442
	    4 R(1,14)         =      1.089227     0.034978     0.007355     1.096583
	    5 R(2,4)          =      1.399447    -0.024430    -0.002373     1.397075
	    6 R(2,15)         =      1.090044     0.033844     0.006013     1.096057
	    7 R(3,5)          =      1.402113     0.025264     0.005692     1.407805
	    8 R(3,16)         =      1.085748     0.055502     0.011126     1.096874
	    9 R(4,6)          =      1.395657     0.035531     0.005741     1.401397
	   10 R(4,17)         =      1.086313     0.050988     0.010273     1.096586
	   11 R(5,6)          =      1.386762     0.228824     0.034920     1.421682
	   12 R(5,9)          =      1.373183     0.039814     0.005765     1.378947
	   13 R(6,10)         =      1.370764     0.077421     0.010661     1.381426
	   14 R(7,9)          =      1.321646    -0.050340    -0.005810     1.315836
	   15 R(7,10)         =      1.377137    -0.031150    -0.003605     1.373532
	   16 R(7,13)         =      1.380553     0.151457     0.021200     1.401753
	   17 R(8,11)         =      1.335369    -0.086733    -0.002155     1.333214
	   18 R(8,12)         =      1.337782     0.047194     0.011376     1.349158
	   19 R(8,13)         =      1.347583     0.061416     0.007393     1.354976
	   20 R(10,18)        =      1.008078     0.074892     0.010159     1.018237
	   21 R(11,19)        =      1.015766     0.085130     0.023753     1.039519
	   22 R(11,20)        =      1.008527     0.058794     0.008706     1.017233
	   23 R(12,21)        =      1.010278     0.043246     0.006785     1.017063
	   24 R(12,22)        =      1.010210     0.043641     0.010411     1.020621
	   25 R(13,23)        =      1.012457     0.034586     0.005532     1.017989
	   26 B(1,2,4)        =    121.310657     0.000278     0.743630   122.054287
	   27 B(1,2,15)       =    119.409098    -0.000073    -0.068357   119.340741
	   28 B(1,3,5)        =    118.523009    -0.000449    -1.378629   117.144380
	   29 B(1,3,16)       =    120.814923     0.000267     0.826229   121.641152
	   30 B(2,1,3)        =    120.859694     0.000353     0.828102   121.687796
	   31 B(2,1,14)       =    119.672508    -0.000142    -0.187311   119.485196
	   32 B(2,4,6)        =    116.512623    -0.000231    -0.603630   115.908992
	   33 B(2,4,17)       =    121.420777     0.000090     0.227514   121.648290
	   34 B(3,1,14)       =    119.467643    -0.000211    -0.640923   118.826720
	   35 B(3,5,6)        =    119.256942     0.000344     1.172953   120.429895
	   36 B(3,5,9)        =    129.959448    -0.000003    -0.582826   129.376622
	   37 B(4,2,15)       =    119.279291    -0.000205    -0.674331   118.604960
	   38 B(4,6,5)        =    123.508687    -0.000294    -0.739600   122.769087
	   39 B(4,6,10)       =    132.378688     0.000087    -0.491918   131.886770
	   40 B(5,3,16)       =    120.660966     0.000181     0.550887   121.211853
	   41 B(5,6,10)       =    104.110506     0.000208     1.229951   105.340458
	   42 B(5,9,7)        =    106.227165    -0.000614    -1.962142   104.265024
	   43 B(6,4,17)       =    122.065823     0.000141     0.376296   122.442119
	   44 B(6,5,9)        =    110.783610    -0.000341    -0.602311   110.181299
	   45 B(6,10,7)       =    108.908126    -0.001096    -3.298488   105.609637
	   46 B(6,10,18)      =    126.072155     0.000319     0.657282   126.729437
	   47 B(7,10,18)      =    125.018723     0.000777     2.637552   127.656275
	   48 B(7,13,8)       =    123.098234     0.000865     2.929477   126.027711
	   49 B(7,13,23)      =    121.451838    -0.000972    -3.738266   117.713572
	   50 B(8,11,19)      =    118.740688     0.000299     1.428601   120.169289
	   51 B(8,11,20)      =    121.819698    -0.000302    -1.055916   120.763783
	   52 B(8,12,21)      =    120.489998     0.000037     0.029962   120.519960
	   53 B(8,12,22)      =    121.156136     0.000196     1.104717   122.260852
	   54 B(8,13,23)      =    115.446169     0.000107     0.807677   116.253845
	   55 B(9,7,10)       =    109.884036     0.001854     4.710658   114.594694
	   56 B(9,7,13)       =    129.112153    -0.001542    -3.935704   125.176449
	   57 B(10,7,13)      =    121.001114    -0.000312    -0.772449   120.228664
	   58 B(11,8,12)      =    118.128466     0.000878     2.776192   120.904658
	   59 B(11,8,13)      =    122.504283    -0.000344    -1.137714   121.366569
	   60 B(12,8,13)      =    119.361468    -0.000533    -1.633325   117.728142
	   61 B(19,11,20)     =    119.438589     0.000005    -0.550209   118.888380
	   62 B(21,12,22)     =    118.203759    -0.000232    -1.127586   117.076174
	   63 D(1,2,4,6)      =     -0.128325     0.000002     0.053358    -0.074967
	   64 D(1,2,4,17)     =    179.557099     0.000008     0.642884   180.199983
	   65 D(1,3,5,6)      =     -0.964547     0.000004     0.501122    -0.463425
	   66 D(1,3,5,9)      =    179.034520     0.000022     1.904283   180.938803
	   67 D(2,1,3,5)      =     -0.485629     0.000004     0.303745    -0.181885
	   68 D(2,1,3,16)     =    179.893869     0.000006     0.505922   180.399791
	   69 D(2,4,6,5)      =     -1.398356     0.000010     0.809582    -0.588774
	   70 D(2,4,6,10)     =    177.983331     0.000023     2.234493   180.217824
	   71 D(3,1,2,4)      =      1.049758    -0.000005    -0.582357     0.467401
	   72 D(3,1,2,15)     =   -179.308120    -0.000000    -0.184551  -179.492671
	   73 D(3,5,6,4)      =      1.970164    -0.000010    -1.085875     0.884289
	   74 D(3,5,6,10)     =   -177.558879    -0.000020    -2.179494  -179.738372
	   75 D(3,5,9,7)      =    176.907155     0.000035     2.754790   179.661944
	   76 D(4,2,1,14)     =   -179.094763    -0.000001    -0.240232  -179.334995
	   77 D(4,6,5,9)      =   -178.029072    -0.000024    -2.241413  -180.270485
	   78 D(4,6,10,7)     =    179.645700     0.000001     0.111540   179.757240
	   79 D(4,6,10,18)    =     -0.004677     0.000006     0.501191     0.496514
	   80 D(5,3,1,14)     =    179.658599     0.000000    -0.036825   179.621775
	   81 D(5,6,4,17)     =    178.918418     0.000004     0.215463   179.133881
	   82 D(5,6,10,7)     =     -0.885888     0.000012     1.346414     0.460527
	   83 D(5,6,10,18)    =    179.463736     0.000017     1.736065   181.199801
	   84 D(5,9,7,10)     =      2.465593    -0.000029    -3.138636    -0.673043
	   85 D(5,9,7,13)     =   -176.931834    -0.000037    -3.581335  -180.513169
	   86 D(6,4,2,15)     =   -179.770903    -0.000002    -0.343709  -180.114612
	   87 D(6,5,3,16)     =    178.656560     0.000002     0.300996   178.957556
	   88 D(6,5,9,7)      =     -3.093715     0.000051     4.043795     0.950081
	   89 D(6,10,7,9)     =     -1.003072     0.000011     1.133099     0.130027
	   90 D(6,10,7,13)    =    178.451472     0.000016     1.527312   179.978784
	   91 D(7,13,8,11)    =     -8.956929     0.000057     5.338368    -3.618560
	   92 D(7,13,8,12)    =    171.934784     0.000043     4.160291   176.095074
	   93 D(8,13,7,9)     =     -9.718395     0.000024     2.205297    -7.513098
	   94 D(8,13,7,10)    =    170.942687     0.000013     1.712462   172.655148
	   95 D(9,5,3,16)     =     -1.344372     0.000020     1.704156     0.359785
	   96 D(9,5,6,10)     =      2.441886    -0.000035    -3.335032    -0.893146
	   97 D(9,7,10,18)    =    178.651868     0.000006     0.729753   179.381621
	   98 D(9,7,13,23)    =    171.019360     0.000024     2.303799   173.323158
	   99 D(10,6,4,17)    =     -1.699894     0.000017     1.640373    -0.059521
	  100 D(10,7,13,23)   =     -8.319559     0.000013     1.810963    -6.508595
	  101 D(11,8,12,21)   =      1.140347    -0.000012    -1.073354     0.066993
	  102 D(11,8,12,22)   =    176.606845    -0.000011    -1.015196   175.591649
	  103 D(11,8,13,23)   =    170.346096     0.000056     5.209866   175.555963
	  104 D(12,8,11,19)   =   -178.283009     0.000040     3.987276  -174.295733
	  105 D(12,8,11,20)   =      2.087468    -0.000017    -1.293214     0.794254
	  106 D(12,8,13,23)   =     -8.762192     0.000042     4.031789    -4.730403
	  107 D(13,7,10,18)   =     -1.893588     0.000011     1.123966    -0.769622
	  108 D(13,8,11,19)   =      2.598238     0.000030     2.810604     5.408843
	  109 D(13,8,11,20)   =   -177.031285    -0.000028    -2.469886  -179.501170
	  110 D(13,8,12,21)   =   -179.712392    -0.000002     0.064359  -179.648033
	  111 D(13,8,12,22)   =     -4.245894    -0.000000     0.122517    -4.123376
	  112 D(14,1,2,15)    =      0.547359     0.000003     0.157574     0.704932
	  113 D(14,1,3,16)    =      0.038097     0.000003     0.165353     0.203450
	  114 D(15,2,4,17)    =     -0.085479     0.000003     0.245817     0.160339
	  115 R(9,11)         =      2.773141     0.002820    -0.013851     2.759290
	 ---------------------------------------------------------------------------
	Successfully symmetrized geometry.

  ==> Convergence Check <==

  Measures of convergence in internal coordinates in au.
  Criteria marked as inactive (o), active & met (*), and active & unmet ( ).
  --------------------------------------------------------------------------------------------- ~
   Step     Total Energy     Delta E     MAX Force     RMS Force      MAX Disp      RMS Disp    ~
  --------------------------------------------------------------------------------------------- ~
    Convergence Criteria    1.00e-06 *    3.00e-04 *             o    1.20e-03 *             o  ~
  --------------------------------------------------------------------------------------------- ~
      1    -582.14671508   -5.82e+02      2.78e-02      6.34e-03 o    9.32e-02      3.28e-02 o  ~
  ---------------------------------------------------------------------------------------------

	Writing optimization data to binary file.
	Structure for next step:
	Cartesian Geometry (in Angstrom)
	    C    -0.0604598499   0.8779131443  -3.5514982673
	    C    -1.3541072407   1.3899270160  -3.2670645682
	    C     0.7302285098   0.2961738213  -2.5625236965
	    C    -1.9019921700   1.3485154974  -1.9825703798
	    C     0.1939381918   0.2395414289  -1.2621007751
	    C    -1.0974520102   0.7692408531  -0.9920804347
	    C    -0.1642475663  -0.0569875058   0.8141680146
	    C     0.9541870867  -1.1432066333   2.7126941538
	    N     0.7554556653  -0.2580906610  -0.1051407095
	    N    -1.3046881314   0.5571048963   0.3571371422
	    N     1.9245754167  -1.6640071669   1.9613143866
	    N     0.9418812601  -1.3215685220   4.0499534980
	    N    -0.0477177602  -0.4139295684   2.1646958106
	    H     0.3328064103   0.9421125881  -4.5731212764
	    H    -1.9465680136   1.8321098011  -4.0762651977
	    H     1.7319458704  -0.0932468620  -2.7817176505
	    H    -2.9030623554   1.7429927116  -1.7710338895
	    H    -2.1379388375   0.7979763724   0.8905036197
	    H     1.9727692096  -1.4466164777   0.9459234310
	    H     2.6682784488  -2.2164133241   2.3814531343
	    H     1.6761717803  -1.8572198905   4.5063655353
	    H     0.2473398316  -0.8783429976   4.6523080500
	    H    -0.7845286002  -0.1127001847   2.7992597280
			--------------------------
			 OPTKING Finished Execution 
			--------------------------

    Structure for next step:
    Molecular point group: c1
    Full point group: C1

    Geometry (in Angstrom), charge = 1, multiplicity = 1:

    C           -0.061851880231     0.878267678589    -3.551058629163
    C           -1.355499271029     1.390281550263    -3.266624930108
    C            0.728836479437     0.296528355600    -2.562084058393
    C           -1.903384200324     1.348870031696    -1.982130741651
    C            0.192546161413     0.239895963200    -1.261661137001
    C           -1.098844040565     0.769595387400    -0.991640796583
    C           -0.165639596641    -0.056632971569     0.814607652680
    C            0.952795056358    -1.142852099054     2.713133791897
    N            0.754063634929    -0.257736126742    -0.104701071335
    N           -1.306080161751     0.557459430573     0.357576780291
    N            1.923183386306    -1.663652632671     1.961754024692
    N            0.940489229772    -1.321213987681     4.050393136126
    N           -0.049109790542    -0.413575034108     2.165135448757
    H            0.331414379910     0.942467122407    -4.572681638297
    H           -1.947960043968     1.832464335404    -4.075825559545
    H            1.730553840060    -0.092892327734    -2.781278012346
    H           -2.904454385791     1.743347245887    -1.770594251395
    H           -2.139330867893     0.798330906665     0.890943257854
    H            1.971377179206    -1.446261943423     0.946363069171
    H            2.666886418477    -2.216058789860     2.381892772459
    H            1.674779749986    -1.856865356261     4.506805173414
    H            0.245947801194    -0.877988463283     4.652747688135
    H           -0.785920630547    -0.112345650398     2.799699366157

gradient() will perform analytic gradient computation.
    SCF Algorithm Type (re)set to DF.

*** tstart() called on c-19-414.local
*** at Mon May  1 19:08:40 2017


         ---------------------------------------------------------
                                   SCF
            by Justin Turney, Rob Parrish, and Andy Simmonett
                              RHF Reference
                        1 Threads,   5000 MiB Core
         ---------------------------------------------------------

  ==> Geometry <==

    Molecular point group: c1
    Full point group: C1

    Geometry (in Angstrom), charge = 1, multiplicity = 1:

       Center              X                  Y                   Z               Mass       
    ------------   -----------------  -----------------  -----------------  -----------------
           C         -0.061851880231     0.878267678589    -3.551058629163    12.000000000000
           C         -1.355499271029     1.390281550263    -3.266624930108    12.000000000000
           C          0.728836479437     0.296528355600    -2.562084058393    12.000000000000
           C         -1.903384200324     1.348870031696    -1.982130741651    12.000000000000
           C          0.192546161413     0.239895963200    -1.261661137001    12.000000000000
           C         -1.098844040565     0.769595387400    -0.991640796583    12.000000000000
           C         -0.165639596641    -0.056632971569     0.814607652680    12.000000000000
           C          0.952795056358    -1.142852099054     2.713133791897    12.000000000000
           N          0.754063634929    -0.257736126742    -0.104701071335    14.003074004780
           N         -1.306080161751     0.557459430573     0.357576780291    14.003074004780
           N          1.923183386306    -1.663652632671     1.961754024692    14.003074004780
           N          0.940489229772    -1.321213987681     4.050393136126    14.003074004780
           N         -0.049109790542    -0.413575034108     2.165135448757    14.003074004780
           H          0.331414379910     0.942467122407    -4.572681638297     1.007825032070
           H         -1.947960043968     1.832464335404    -4.075825559545     1.007825032070
           H          1.730553840060    -0.092892327734    -2.781278012346     1.007825032070
           H         -2.904454385791     1.743347245887    -1.770594251395     1.007825032070
           H         -2.139330867893     0.798330906665     0.890943257854     1.007825032070
           H          1.971377179206    -1.446261943423     0.946363069171     1.007825032070
           H          2.666886418477    -2.216058789860     2.381892772459     1.007825032070
           H          1.674779749986    -1.856865356261     4.506805173414     1.007825032070
           H          0.245947801194    -0.877988463283     4.652747688135     1.007825032070
           H         -0.785920630547    -0.112345650398     2.799699366157     1.007825032070

  Running in c1 symmetry.

  Rotational constants: A =      0.08889  B =      0.01405  C =      0.01216 [cm^-1]
  Rotational constants: A =   2664.80486  B =    421.30655  C =    364.45312 [MHz]
  Nuclear repulsion =  754.629506484263629

  Charge       = 1
  Multiplicity = 1
  Electrons    = 92
  Nalpha       = 46
  Nbeta        = 46

  ==> Algorithm <==

  SCF Algorithm Type is DF.
  DIIS enabled.
  MOM disabled.
  Fractional occupation disabled.
  Guess Type is READ.
  Energy threshold   = 1.00e-10
  Density threshold  = 1.00e-10
  Integral threshold = 0.00e+00

  ==> Primary Basis <==

  Basis Set: DEF2-SV(P)
    Number of shells: 98
    Number of basis function: 202
    Number of Cartesian functions: 215
    Spherical Harmonics?: true
    Max angular momentum: 2

  ==> Pre-Iterations <==

   -------------------------------------------------------
    Irrep   Nso     Nmo     Nalpha   Nbeta   Ndocc  Nsocc
   -------------------------------------------------------
     A        202     202       0       0       0       0
   -------------------------------------------------------
    Total     202     202      46      46      46       0
   -------------------------------------------------------

  ==> Integral Setup <==

  ==> DFJK: Density-Fitted J/K Matrices <==

    J tasked:                  Yes
    K tasked:                  Yes
    wK tasked:                  No
    OpenMP threads:              1
    Integrals threads:           1
    Memory (MB):              3576
    Algorithm:                Core
    Integral Cache:           NONE
    Schwarz Cutoff:          1E-12
    Fitting Condition:       1E-12

   => Auxiliary Basis Set <=

  Basis Set: 
    Number of shells: 385
    Number of basis function: 1165
    Number of Cartesian functions: 1377
    Spherical Harmonics?: true
    Max angular momentum: 4

  Minimum eigenvalue in the overlap matrix is 2.6318593674E-04.
  Using Symmetric Orthogonalization.
  SCF Guess: Reading in previously saved MOs, projecting if necessary.

  Using orbitals from previous SCF, no projection.
  Recomputing DOCC and SOCC from number of alpha and beta electrons from previous calculation.
              A 
    DOCC [    46 ]

  ==> Iterations <==

                           Total Energy        Delta E     RMS |[F,P]|

   @DF-RHF iter   0:  -580.22129981847206   -5.80221e+02   1.78830e-03 
   @DF-RHF iter   1:  -580.37063050720121   -1.49331e-01   2.80641e-04 
   @DF-RHF iter   2:  -580.37315657836552   -2.52607e-03   1.25980e-04 DIIS
   @DF-RHF iter   3:  -580.37356686179874   -4.10283e-04   4.86168e-05 DIIS
   @DF-RHF iter   4:  -580.37366941723189   -1.02555e-04   1.33178e-05 DIIS
   @DF-RHF iter   5:  -580.37367490864995   -5.49142e-06   4.80672e-06 DIIS
   @DF-RHF iter   6:  -580.37367612770049   -1.21905e-06   1.96040e-06 DIIS
   @DF-RHF iter   7:  -580.37367632621635   -1.98516e-07   7.42748e-07 DIIS
   @DF-RHF iter   8:  -580.37367637138755   -4.51712e-08   3.30555e-07 DIIS
   @DF-RHF iter   9:  -580.37367638364003   -1.22525e-08   1.61527e-07 DIIS
   @DF-RHF iter  10:  -580.37367638654791   -2.90788e-09   6.25659e-08 DIIS
   @DF-RHF iter  11:  -580.37367638696992   -4.22006e-10   1.84729e-08 DIIS
   @DF-RHF iter  12:  -580.37367638699311   -2.31921e-11   6.68647e-09 DIIS
   @DF-RHF iter  13:  -580.37367638699561   -2.50111e-12   2.24224e-09 DIIS
   @DF-RHF iter  14:  -580.37367638699584   -2.27374e-13   8.69273e-10 DIIS
   @DF-RHF iter  15:  -580.37367638699538    4.54747e-13   3.42291e-10 DIIS
   @DF-RHF iter  16:  -580.37367638699493    4.54747e-13   1.46763e-10 DIIS
   @DF-RHF iter  17:  -580.37367638699470    2.27374e-13   7.14501e-11 DIIS

  ==> Post-Iterations <==

    Orbital Energies (a.u.)
    -----------------------

    Doubly Occupied:                                                      

       1A    -15.812920     2A    -15.790766     3A    -15.775481  
       4A    -15.761384     5A    -15.696430     6A    -11.610404  
       7A    -11.519061     8A    -11.396570     9A    -11.379967  
      10A    -11.349795    11A    -11.343570    12A    -11.341211  
      13A    -11.335165    14A     -1.540223    15A     -1.482490  
      16A     -1.393853    17A     -1.371298    18A     -1.316235  
      19A     -1.233315    20A     -1.127416    21A     -1.109308  
      22A     -1.059352    23A     -1.000635    24A     -0.986863  
      25A     -0.967151    26A     -0.929059    27A     -0.918368  
      28A     -0.872195    29A     -0.862659    30A     -0.851383  
      31A     -0.826638    32A     -0.819902    33A     -0.795210  
      34A     -0.755576    35A     -0.733481    36A     -0.714498  
      37A     -0.712848    38A     -0.651132    39A     -0.631993  
      40A     -0.624800    41A     -0.614851    42A     -0.583436  
      43A     -0.583045    44A     -0.561352    45A     -0.427720  
      46A     -0.413816  

    Virtual:                                                              

      47A     -0.027760    48A     -0.015923    49A      0.020595  
      50A      0.030970    51A      0.042597    52A      0.049015  
      53A      0.071481    54A      0.086175    55A      0.103247  
      56A      0.109292    57A      0.126682    58A      0.150150  
      59A      0.166444    60A      0.175451    61A      0.191560  
      62A      0.223598    63A      0.256306    64A      0.261512  
      65A      0.292485    66A      0.306184    67A      0.322454  
      68A      0.324960    69A      0.348173    70A      0.358085  
      71A      0.369467    72A      0.375485    73A      0.394373  
      74A      0.441385    75A      0.449066    76A      0.485422  
      77A      0.490071    78A      0.503829    79A      0.515916  
      80A      0.546328    81A      0.563577    82A      0.570083  
      83A      0.577369    84A      0.586323    85A      0.592876  
      86A      0.594676    87A      0.606421    88A      0.611340  
      89A      0.638763    90A      0.655069    91A      0.679750  
      92A      0.687577    93A      0.741679    94A      0.746849  
      95A      0.755934    96A      0.780814    97A      0.807245  
      98A      0.812226    99A      0.822820   100A      0.827435  
     101A      0.832213   102A      0.842897   103A      0.851349  
     104A      0.853339   105A      0.862694   106A      0.873697  
     107A      0.884951   108A      0.899494   109A      0.921132  
     110A      0.928141   111A      0.945059   112A      0.949197  
     113A      0.957306   114A      0.961649   115A      0.980147  
     116A      0.994683   117A      1.011289   118A      1.027544  
     119A      1.037042   120A      1.074760   121A      1.105913  
     122A      1.150826   123A      1.177880   124A      1.212668  
     125A      1.225758   126A      1.265865   127A      1.291424  
     128A      1.334847   129A      1.359345   130A      1.373777  
     131A      1.385566   132A      1.406654   133A      1.424609  
     134A      1.460986   135A      1.483216   136A      1.517646  
     137A      1.532825   138A      1.534420   139A      1.554784  
     140A      1.573196   141A      1.590680   142A      1.621187  
     143A      1.651110   144A      1.663608   145A      1.672244  
     146A      1.681499   147A      1.710806   148A      1.897920  
     149A      1.952484   150A      1.974409   151A      2.034868  
     152A      2.043394   153A      2.091545   154A      2.121828  
     155A      2.160948   156A      2.166234   157A      2.170767  
     158A      2.186449   159A      2.216773   160A      2.230966  
     161A      2.243303   162A      2.245312   163A      2.265154  
     164A      2.293944   165A      2.301038   166A      2.373143  
     167A      2.384473   168A      2.420285   169A      2.460937  
     170A      2.467081   171A      2.497613   172A      2.513733  
     173A      2.600432   174A      2.621077   175A      2.645764  
     176A      2.647029   177A      2.688379   178A      2.693855  
     179A      2.695729   180A      2.723817   181A      2.775387  
     182A      2.800242   183A      2.829911   184A      2.871737  
     185A      2.884510   186A      2.910051   187A      2.915413  
     188A      2.963937   189A      2.969088   190A      3.022226  
     191A      3.022635   192A      3.057835   193A      3.092513  
     194A      3.104859   195A      3.161928   196A      3.316138  
     197A      3.334209   198A      3.388928   199A      3.503664  
     200A      3.542855   201A      3.630664   202A      3.802872  

    Final Occupation by Irrep:
              A 
    DOCC [    46 ]

  Energy converged.

  @DF-RHF Final Energy:  -580.37367638699470

   => Energetics <=

    Nuclear Repulsion Energy =            754.6295064842636293
    One-Electron Energy =               -2270.8367230841186029
    Two-Electron Energy =                 935.8335402128597025
    DFT Exchange-Correlation Energy =       0.0000000000000000
    Empirical Dispersion Energy =           0.0000000000000000
    PCM Polarization Energy =               0.0000000000000000
    EFP Energy =                            0.0000000000000000
    Total Energy =                       -580.3736763869952711


  Saving occupied orbitals to File 180.

*** tstop() called on c-19-414.local at Mon May  1 19:09:00 2017
Module time:
	user time   =      15.84 seconds =       0.26 minutes
	system time =       0.78 seconds =       0.01 minutes
	total time  =         20 seconds =       0.33 minutes
Total time:
	user time   =     102.14 seconds =       1.70 minutes
	system time =       5.74 seconds =       0.10 minutes
	total time  =        170 seconds =       2.83 minutes


Properties will be evaluated at   0.000000,   0.000000,   0.000000 Bohr

Properties computed using the SCF density matrix

  Nuclear Dipole Moment: (a.u.)
     X:     0.7840      Y:    -1.1964      Z:     2.7674

  Electronic Dipole Moment: (a.u.)
     X:    -0.4139      Y:    -0.1324      Z:     2.0031

  Dipole Moment: (a.u.)
     X:     0.3700      Y:    -1.3288      Z:     4.7704     Total:     4.9658

  Dipole Moment: (Debye)
     X:     0.9405      Y:    -3.3774      Z:    12.1252     Total:    12.6219


  //>>>>>>>>>>>>>>>>>>>>>>>>>>>>>>>>>>>//
  //               DFMP2               //
  //<<<<<<<<<<<<<<<<<<<<<<<<<<<<<<<<<<<//


*** tstart() called on c-19-414.local
*** at Mon May  1 19:09:00 2017


*** tstop() called on c-19-414.local at Mon May  1 19:09:01 2017
Module time:
	user time   =       0.39 seconds =       0.01 minutes
	system time =       0.00 seconds =       0.00 minutes
	total time  =          1 seconds =       0.02 minutes
Total time:
	user time   =     102.54 seconds =       1.71 minutes
	system time =       5.74 seconds =       0.10 minutes
	total time  =        171 seconds =       2.85 minutes
	 --------------------------------------------------------
	                          DF-MP2                         
	      2nd-Order Density-Fitted Moller-Plesset Theory     
	              RMP2 Wavefunction,   1 Threads             
	                                                         
	        Rob Parrish, Justin Turney, Andy Simmonett,      
	           Ed Hohenstein, and C. David Sherrill          
	 --------------------------------------------------------

   => Auxiliary Basis Set <=

  Basis Set: DEF2-SV(P)-RI
    Number of shells: 268
    Number of basis function: 764
    Number of Cartesian functions: 865
    Spherical Harmonics?: true
    Max angular momentum: 3

	 --------------------------------------------------------
	                 NBF =   202, NAUX =   764
	 --------------------------------------------------------
	   CLASS    FOCC     OCC    AOCC    AVIR     VIR    FVIR
	   PAIRS      13      46      33     156     156       0
	 --------------------------------------------------------

DGAS Warning! /src/lib/libfock/apps.cc:80 is not currently checking restricted

         ------------------------------------------------------------
                                     CPHF                           
                                  Rob Parrish                       
         ------------------------------------------------------------

  ==> Geometry <==

    Molecular point group: c1
    Full point group: C1

    Geometry (in Angstrom), charge = 1, multiplicity = 1:

       Center              X                  Y                   Z               Mass       
    ------------   -----------------  -----------------  -----------------  -----------------
           C         -0.061851880231     0.878267678589    -3.551058629163    12.000000000000
           C         -1.355499271029     1.390281550263    -3.266624930108    12.000000000000
           C          0.728836479437     0.296528355600    -2.562084058393    12.000000000000
           C         -1.903384200324     1.348870031696    -1.982130741651    12.000000000000
           C          0.192546161413     0.239895963200    -1.261661137001    12.000000000000
           C         -1.098844040565     0.769595387400    -0.991640796583    12.000000000000
           C         -0.165639596641    -0.056632971569     0.814607652680    12.000000000000
           C          0.952795056358    -1.142852099054     2.713133791897    12.000000000000
           N          0.754063634929    -0.257736126742    -0.104701071335    14.003074004780
           N         -1.306080161751     0.557459430573     0.357576780291    14.003074004780
           N          1.923183386306    -1.663652632671     1.961754024692    14.003074004780
           N          0.940489229772    -1.321213987681     4.050393136126    14.003074004780
           N         -0.049109790542    -0.413575034108     2.165135448757    14.003074004780
           H          0.331414379910     0.942467122407    -4.572681638297     1.007825032070
           H         -1.947960043968     1.832464335404    -4.075825559545     1.007825032070
           H          1.730553840060    -0.092892327734    -2.781278012346     1.007825032070
           H         -2.904454385791     1.743347245887    -1.770594251395     1.007825032070
           H         -2.139330867893     0.798330906665     0.890943257854     1.007825032070
           H          1.971377179206    -1.446261943423     0.946363069171     1.007825032070
           H          2.666886418477    -2.216058789860     2.381892772459     1.007825032070
           H          1.674779749986    -1.856865356261     4.506805173414     1.007825032070
           H          0.245947801194    -0.877988463283     4.652747688135     1.007825032070
           H         -0.785920630547    -0.112345650398     2.799699366157     1.007825032070

  Nuclear repulsion =  754.629506484263629
  Reference energy  = -580.373676386994703

  ==> Basis Set <==

  Basis Set: DEF2-SV(P)
    Number of shells: 98
    Number of basis function: 202
    Number of Cartesian functions: 215
    Spherical Harmonics?: true
    Max angular momentum: 2

  ==> CGRSolver (by Rob Parrish) <==

   Number of roots    =         1
   Preconditioning    =    JACOBI
   Convergence cutoff =     1E-06
   Maximum iterations =       100

  ==> CPHFRHamiltonian (by Rob Parrish) <== 

  ==> DFJK: Density-Fitted J/K Matrices <==

    J tasked:                  Yes
    K tasked:                  Yes
    wK tasked:                  No
    OpenMP threads:              1
    Integrals threads:           1
    Memory (MB):              3576
    Algorithm:                Core
    Integral Cache:           NONE
    Schwarz Cutoff:          1E-12
    Fitting Condition:       1E-12

   => Auxiliary Basis Set <=

  Basis Set: 
    Number of shells: 385
    Number of basis function: 1165
    Number of Cartesian functions: 1377
    Spherical Harmonics?: true
    Max angular momentum: 4

  ==> CPHF Iterations <==

  => Iterations <=

             Iter  Converged  Remaining    Residual
  CGR           1          0          1   1.261E-01
  CGR           2          0          1   3.838E-02
  CGR           3          0          1   1.954E-02
  CGR           4          0          1   6.077E-03
  CGR           5          0          1   3.374E-03
  CGR           6          0          1   1.250E-03
  CGR           7          0          1   4.789E-04
  CGR           8          0          1   1.671E-04
  CGR           9          0          1   6.035E-05
  CGR          10          0          1   2.376E-05
  CGR          11          0          1   6.964E-06
  CGR          12          0          1   3.106E-06
  CGR          13          0          1   1.585E-06
  CGR          14          1          0   6.119E-07

    CGRSolver converged.

  ==> DFCorrGrad: Density-Fitted Correlated Gradients <==

    OpenMP threads:              1
    Integrals threads:           1
    Memory (MB):              3576
    Schwarz Cutoff:          0E+00
    Fitting Condition:       1E-12

   => Auxiliary Basis Set <=

  Basis Set: 
    Number of shells: 385
    Number of basis function: 1165
    Number of Cartesian functions: 1377
    Spherical Harmonics?: true
    Max angular momentum: 4

	-----------------------------------------------------------
	 ==================> DF-MP2 Energies <==================== 
	-----------------------------------------------------------
	 Reference Energy          =    -580.3736763869947026 [Eh]
	 Singles Energy            =      -0.0000000000000002 [Eh]
	 Same-Spin Energy          =      -0.4871889321535395 [Eh]
	 Opposite-Spin Energy      =      -1.2935341429664438 [Eh]
	 Correlation Energy        =      -1.7807230751199834 [Eh]
	 Total Energy              =    -582.1543994621147249 [Eh]
	-----------------------------------------------------------
	 ================> DF-SCS-MP2 Energies <================== 
	-----------------------------------------------------------
	 SCS Same-Spin Scale       =       0.3333333333333333 [-]
	 SCS Opposite-Spin Scale   =       1.2000000000000000 [-]
	 SCS Same-Spin Energy      =      -0.1623963107178465 [Eh]
	 SCS Opposite-Spin Energy  =      -1.5522409715597325 [Eh]
	 SCS Correlation Energy    =      -1.7146372822775793 [Eh]
	 SCS Total Energy          =    -582.0883136692723383 [Eh]
	-----------------------------------------------------------


  -Total Gradient:
     Atom            X                  Y                   Z
    ------   -----------------  -----------------  -----------------
       1        0.001099822980    -0.000162115190    -0.000567003353
       2       -0.000286045378     0.000106444626    -0.000458328224
       3        0.001317755441    -0.001203111012    -0.001004746942
       4       -0.002004273122     0.000783068421     0.002364369358
       5        0.002613474891    -0.004104253085     0.006766895733
       6       -0.000824177143    -0.000197235145     0.006007606275
       7        0.003277136837    -0.003099421045     0.004564763366
       8       -0.006353937097     0.001090687837    -0.000024748378
       9        0.003336611061     0.004197557450    -0.011752397459
      10       -0.009801446502     0.005803604569    -0.005236541171
      11        0.005681524399    -0.003936877651     0.000552894756
      12        0.001626910460    -0.000182493749     0.006201827128
      13       -0.004670709558     0.004442840778    -0.006296722698
      14        0.001557584498    -0.000377491749    -0.000109384131
      15       -0.000742499456     0.000060148866     0.000493112601
      16        0.001463881534    -0.000082410710    -0.000993994978
      17       -0.001092591364     0.000087080399     0.000357433925
      18       -0.000348683015    -0.000055012566     0.001407452829
      19        0.006479817526    -0.002856578134    -0.004838438051
      20        0.000144033163    -0.000832198872    -0.001529808416
      21        0.000453469223    -0.000252065449    -0.000239858299
      22       -0.002589134250     0.002125940767     0.002898582122
      23       -0.000338525131    -0.001356109354     0.001437034004


			-----------------------------------------
			 OPTKING 2.0: for geometry optimizations 
			  - R.A. King,  Bethel University        
			-----------------------------------------

	Previous internal coordinate definitions found.
	---Fragment 1 Geometry and Gradient---
	 C          -0.1168831144        1.6596853839       -6.7105282909
	 C          -2.5615223956        2.6272513776       -6.1730264968
	 C           1.3773013418        0.5603573827       -4.8416371998
	 C          -3.5968748643        2.5489949488       -3.7456842613
	 C           0.3638595130        0.4533376708       -2.3841940214
	 C          -2.0765142994        1.4543245153       -1.8739295277
	 C          -0.3130134744       -0.1070208064        1.5393853693
	 C           1.8005217173       -2.1596774776        5.1270798286
	 N           1.4249737568       -0.4870506941       -0.1978563506
	 N          -2.4681338133        1.0534456540        0.6757221862
	 N           3.6342899034       -3.1438478560        3.7071778468
	 N           1.7772670752       -2.4967325997        7.6541337578
	 N          -0.0928040546       -0.7815435499        4.0915130388
	 H           0.6262824145        1.7810047506       -8.6411159893
	 H          -3.6811110009        3.4628557422       -7.7021940730
	 H           3.2702728159       -0.1755410593       -5.2558537428
	 H          -5.4886233546        3.2944488492       -3.3459382276
	 H          -4.0427494479        1.5086267770        1.6836387573
	 H           3.7253629733       -2.7330389895        1.7883670230
	 H           5.0396849584       -4.1877442072        4.5011250178
	 H           3.1648750604       -3.5089669890        8.5166275120
	 H           0.4647739872       -1.6591577434        8.7924188960
	 H          -1.4851747539       -0.2123025115        5.2906650565
	             0.0010998230       -0.0001621152       -0.0005670034
	            -0.0002860454        0.0001064446       -0.0004583282
	             0.0013177554       -0.0012031110       -0.0010047469
	            -0.0020042731        0.0007830684        0.0023643694
	             0.0026134749       -0.0041042531        0.0067668957
	            -0.0008241771       -0.0001972351        0.0060076063
	             0.0032771368       -0.0030994210        0.0045647634
	            -0.0063539371        0.0010906878       -0.0000247484
	             0.0033366111        0.0041975574       -0.0117523975
	            -0.0098014465        0.0058036046       -0.0052365412
	             0.0056815244       -0.0039368777        0.0005528948
	             0.0016269105       -0.0001824937        0.0062018271
	            -0.0046707096        0.0044428408       -0.0062967227
	             0.0015575845       -0.0003774917       -0.0001093841
	            -0.0007424995        0.0000601489        0.0004931126
	             0.0014638815       -0.0000824107       -0.0009939950
	            -0.0010925914        0.0000870804        0.0003574339
	            -0.0003486830       -0.0000550126        0.0014074528
	             0.0064798175       -0.0028565781       -0.0048384381
	             0.0001440332       -0.0008321989       -0.0015298084
	             0.0004534692       -0.0002520654       -0.0002398583
	            -0.0025891343        0.0021259408        0.0028985821
	            -0.0003385251       -0.0013561094        0.0014370340

	---Fragment 1 Intrafragment Coordinates---
	 - Coordinate -           - BOHR/RAD -       - ANG/DEG -
	 H(9,19)          =         3.779066	       1.999795
	 R(1,2)           =         2.683534	       1.420065
	 R(1,3)           =         2.633223	       1.393442
	 R(1,14)          =         2.072241	       1.096583
	 R(2,4)           =         2.640089	       1.397075
	 R(2,15)          =         2.071248	       1.096057
	 R(3,5)           =         2.660365	       1.407805
	 R(3,16)          =         2.072791	       1.096874
	 R(4,6)           =         2.648257	       1.401397
	 R(4,17)          =         2.072248	       1.096586
	 R(5,6)           =         2.686591	       1.421682
	 R(5,9)           =         2.605833	       1.378947
	 R(6,10)          =         2.610516	       1.381426
	 R(7,9)           =         2.486570	       1.315836
	 R(7,10)          =         2.595600	       1.373532
	 R(7,13)          =         2.648930	       1.401753
	 R(8,11)          =         2.519408	       1.333214
	 R(8,12)          =         2.549539	       1.349158
	 R(8,13)          =         2.560534	       1.354976
	 R(10,18)         =         1.924188	       1.018237
	 R(11,19)         =         1.964407	       1.039519
	 R(11,20)         =         1.922292	       1.017233
	 R(12,21)         =         1.921970	       1.017063
	 R(12,22)         =         1.928695	       1.020621
	 R(13,23)         =         1.923720	       1.017989
	 B(1,2,4)         =         2.130249	     122.054287
	 B(1,2,15)        =         2.082889	     119.340741
	 B(1,3,5)         =         2.044555	     117.144380
	 B(1,3,16)        =         2.123039	     121.641152
	 B(2,1,3)         =         2.123853	     121.687796
	 B(2,1,14)        =         2.085410	     119.485196
	 B(2,4,6)         =         2.022994	     115.908992
	 B(2,4,17)        =         2.123163	     121.648290
	 B(3,1,14)        =         2.073917	     118.826720
	 B(3,5,6)         =         2.101898	     120.429895
	 B(3,5,9)         =         2.258048	     129.376622
	 B(4,2,15)        =         2.070047	     118.604960
	 B(4,6,5)         =         2.142725	     122.769087
	 B(4,6,10)        =         2.301858	     131.886770
	 B(5,3,16)        =         2.115546	     121.211853
	 B(5,6,10)        =         1.838538	     105.340458
	 B(5,9,7)         =         1.819768	     104.265024
	 B(6,4,17)        =         2.137018	     122.442119
	 B(6,5,9)         =         1.923026	     110.181299
	 B(6,10,7)        =         1.843236	     105.609637
	 B(6,10,18)       =         2.211846	     126.729437
	 B(7,10,18)       =         2.228022	     127.656275
	 B(7,13,8)        =         2.199599	     126.027711
	 B(7,13,23)       =         2.054489	     117.713572
	 B(8,11,19)       =         2.097350	     120.169289
	 B(8,11,20)       =         2.107726	     120.763783
	 B(8,12,21)       =         2.103470	     120.519960
	 B(8,12,22)       =         2.133854	     122.260852
	 B(8,13,23)       =         2.029012	     116.253845
	 B(9,7,10)        =         2.000055	     114.594694
	 B(9,7,13)        =         2.184741	     125.176449
	 B(10,7,13)       =         2.098386	     120.228664
	 B(11,8,12)       =         2.110184	     120.904658
	 B(11,8,13)       =         2.118246	     121.366569
	 B(12,8,13)       =         2.054744	     117.728142
	 B(19,11,20)      =         2.074994	     118.888380
	 B(21,12,22)      =         2.043365	     117.076174
	 D(1,2,4,6)       =        -0.001308	      -0.074967
	 D(1,2,4,17)      =        -3.138102	    -179.800017
	 D(1,3,5,6)       =        -0.008088	      -0.463425
	 D(1,3,5,9)       =        -3.125207	    -179.061197
	 D(2,1,3,5)       =        -0.003174	      -0.181885
	 D(2,1,3,16)      =        -3.134615	    -179.600209
	 D(2,4,6,5)       =        -0.010276	      -0.588774
	 D(2,4,6,10)      =        -3.137791	    -179.782176
	 D(3,1,2,4)       =         0.008158	       0.467401
	 D(3,1,2,15)      =        -3.132738	    -179.492671
	 D(3,5,6,4)       =         0.015434	       0.884289
	 D(3,5,6,10)      =        -3.137026	    -179.738372
	 D(3,5,9,7)       =         3.135692	     179.661944
	 D(4,2,1,14)      =        -3.129986	    -179.334995
	 D(4,6,5,9)       =         3.136872	     179.729515
	 D(4,6,10,7)      =         3.137356	     179.757240
	 D(4,6,10,18)     =         0.008666	       0.496514
	 D(5,3,1,14)      =         3.134991	     179.621775
	 D(5,6,4,17)      =         3.126476	     179.133881
	 D(5,6,10,7)      =         0.008038	       0.460527
	 D(5,6,10,18)     =        -3.120652	    -178.800199
	 D(5,9,7,10)      =        -0.011747	      -0.673043
	 D(5,9,7,13)      =         3.132636	     179.486831
	 D(6,4,2,15)      =         3.139592	     179.885388
	 D(6,5,3,16)      =         3.123399	     178.957556
	 D(6,5,9,7)       =         0.016582	       0.950081
	 D(6,10,7,9)      =         0.002269	       0.130027
	 D(6,10,7,13)     =         3.141222	     179.978784
	 D(7,13,8,11)     =        -0.063156	      -3.618560
	 D(7,13,8,12)     =         3.073439	     176.095074
	 D(8,13,7,9)      =        -0.131128	      -7.513098
	 D(8,13,7,10)     =         3.013401	     172.655148
	 D(9,5,3,16)      =         0.006279	       0.359785
	 D(9,5,6,10)      =        -0.015588	      -0.893146
	 D(9,7,10,18)     =         3.130800	     179.381621
	 D(9,7,13,23)     =         3.025060	     173.323158
	 D(10,6,4,17)     =        -0.001039	      -0.059521
	 D(10,7,13,23)    =        -0.113596	      -6.508595
	 D(11,8,12,21)    =         0.001169	       0.066993
	 D(11,8,12,22)    =         3.064652	     175.591649
	 D(11,8,13,23)    =         3.064030	     175.555963
	 D(12,8,11,19)    =        -3.042034	    -174.295733
	 D(12,8,11,20)    =         0.013862	       0.794254
	 D(12,8,13,23)    =        -0.082561	      -4.730403
	 D(13,7,10,18)    =        -0.013432	      -0.769622
	 D(13,8,11,19)    =         0.094402	       5.408843
	 D(13,8,11,20)    =        -3.132886	    -179.501170
	 D(13,8,12,21)    =        -3.135450	    -179.648033
	 D(13,8,12,22)    =        -0.071966	      -4.123376
	 D(14,1,2,15)     =         0.012303	       0.704932
	 D(14,1,3,16)     =         0.003551	       0.203450
	 D(15,2,4,17)     =         0.002798	       0.160339
	 R(9,11)          =         5.214302	       2.759290

	Current energy   :      -582.1543994621

	Energy change for the previous step:
		Projected    :        -0.0215279447
		Actual       :        -0.0076843794

	Performing BFGS update.
	Previous computed or guess Hessian on step 1.
	Steps to be used in Hessian update: 1
	Taking RFO optimization step.
	Going to follow RFO solution 1.
	Using RFO vector 1.
	Norm of target step-size    0.22467
	Projected energy change by RFO approximation:        -0.0026209953

	Back-transformation to cartesian coordinates...
	The INTCO_EXCEPTion handler:
	TORS::compute_val: unable to compute torsion value
	Dynamic level is 0.
	exc.g_really_quit() is 0.

  **** Optimization has failed! (in 2 steps) ****
			--------------------------
			 OPTKING Finished Execution 
			--------------------------
	Cleaning optimization helper files.

*** Psi4 exiting successfully. Buy a developer a beer!
