    -----------------------------------------------------------------------
          Psi4: An Open-Source Ab Initio Electronic Structure Package
                              Psi4 1.0.24 Driver

                          Git: Rev {master} 45aac03 dirty

    J. M. Turney, A. C. Simmonett, R. M. Parrish, E. G. Hohenstein,
    F. A. Evangelista, J. T. Fermann, B. J. Mintz, L. A. Burns, J. J. Wilke,
    M. L. Abrams, N. J. Russ, M. L. Leininger, C. L. Janssen, E. T. Seidl,
    W. D. Allen, H. F. Schaefer, R. A. King, E. F. Valeev, C. D. Sherrill,
    and T. D. Crawford, WIREs Comput. Mol. Sci. 2, 556-565 (2012)
    (doi: 10.1002/wcms.93)

                         Additional Contributions by
    A. E. DePrince, U. Bozkaya, A. Yu. Sokolov, D. G. A. Smith, R. Di Remigio,
    R. M. Richard, J. F. Gonthier, H. R. McAlexander, M. Saitow, and
    B. P. Pritchard
    -----------------------------------------------------------------------


    Psi4 started on: Mon May  1 19:06:09 2017

    Process ID:   6475
    PSI4DATADIR: /home/limvt/local/miniconda2/share/psi4
    Memory level set to 256.000 MB

  ==> Input File <==

--------------------------------------------------------------------------
memory 5.0 Gb
molecule GBI_2 {
  1 1
  C     2.0682    -0.3844      0.6845
  C     0.6835    -0.3049      0.8547
  C     2.9044    -0.7412      1.7510
  C     0.0855    -0.5843      2.0885
  C     2.3205    -1.0265      2.9935
  C     0.9423    -0.9481      3.1283
  C     1.9166    -1.5973      5.0336
  C     3.1210    -2.2960      6.9886
  N     2.9063    -1.4011      4.1777
  N     0.7138    -1.3040      4.4315
  N     4.3179    -2.0432      6.4531
  N     3.0789    -2.8197      8.2191
  N     1.9679    -2.0398      6.3397
  H     2.5049    -0.1678     -0.2896
  H     0.0556    -0.0232      0.0094
  H     3.9799    -0.8043      1.6172
  H    -0.9911    -0.5266      2.2220
  H    -0.1877    -1.3647      4.8808
  H     5.1743    -2.2229      6.9546
  H     4.3594    -1.6603      5.5127
  H     3.9324    -3.0275      8.7177
  H     2.2002    -3.0572      8.6574
  H     1.1230    -2.2039      6.8739
  units angstrom
}

set basis def2-SV(P)
set df_basis_mp2 def2-SV(P)-ri
set freeze_core True
optimize('mp2')
--------------------------------------------------------------------------

  Memory set to   5.000 GiB by Python script.
gradient() will perform analytic gradient computation.
    SCF Algorithm Type (re)set to DF.

*** tstart() called on c-19-414.local
*** at Mon May  1 19:06:10 2017


         ---------------------------------------------------------
                                   SCF
            by Justin Turney, Rob Parrish, and Andy Simmonett
                              RHF Reference
                        1 Threads,   5000 MiB Core
         ---------------------------------------------------------

  ==> Geometry <==

    Molecular point group: c1
    Full point group: C1

    Geometry (in Angstrom), charge = 1, multiplicity = 1:

       Center              X                  Y                   Z               Mass       
    ------------   -----------------  -----------------  -----------------  -----------------
           C         -0.048034228764     1.002972049072    -3.532394978254    12.000000000000
           C         -1.432734228764     1.082472049072    -3.362194978254    12.000000000000
           C          0.788165771236     0.646172049072    -2.465894978254    12.000000000000
           C         -2.030734228764     0.803072049072    -2.128394978254    12.000000000000
           C          0.204265771236     0.360872049072    -1.223394978254    12.000000000000
           C         -1.173934228764     0.439272049072    -1.088594978254    12.000000000000
           C         -0.199634228764    -0.209927950928     0.816705021746    12.000000000000
           C          1.004765771236    -0.908627950928     2.771705021746    12.000000000000
           N          0.790065771236    -0.013727950928    -0.039194978254    14.003074004780
           N         -1.402434228764     0.083372049072     0.214605021746    14.003074004780
           N          2.201665771236    -0.655827950928     2.236205021746    14.003074004780
           N          0.962665771236    -1.432327950928     4.002205021746    14.003074004780
           N         -0.148334228764    -0.652427950928     2.122805021746    14.003074004780
           H          0.388665771236     1.219572049072    -4.506494978254     1.007825032070
           H         -2.060634228764     1.364172049072    -4.207494978254     1.007825032070
           H          1.863665771236     0.583072049072    -2.599694978254     1.007825032070
           H         -3.107334228764     0.860772049072    -1.994894978254     1.007825032070
           H         -2.303934228764     0.022672049072     0.663905021746     1.007825032070
           H          3.058065771236    -0.835527950928     2.737705021746     1.007825032070
           H          2.243165771236    -0.272927950928     1.295805021746     1.007825032070
           H          1.816165771236    -1.640127950928     4.500805021746     1.007825032070
           H          0.083965771236    -1.669827950928     4.440505021746     1.007825032070
           H         -0.993234228764    -0.816527950928     2.657005021746     1.007825032070

  Running in c1 symmetry.

  Rotational constants: A =      0.09180  B =      0.01402  C =      0.01218 [cm^-1]
  Rotational constants: A =   2752.21793  B =    420.16735  C =    365.08356 [MHz]
  Nuclear repulsion =  757.964992460950043

  Charge       = 1
  Multiplicity = 1
  Electrons    = 92
  Nalpha       = 46
  Nbeta        = 46

  ==> Algorithm <==

  SCF Algorithm Type is DF.
  DIIS enabled.
  MOM disabled.
  Fractional occupation disabled.
  Guess Type is SAD.
  Energy threshold   = 1.00e-10
  Density threshold  = 1.00e-10
  Integral threshold = 0.00e+00

  ==> Primary Basis <==

  Basis Set: DEF2-SV(P)
    Number of shells: 98
    Number of basis function: 202
    Number of Cartesian functions: 215
    Spherical Harmonics?: true
    Max angular momentum: 2

  ==> Pre-Iterations <==

   -------------------------------------------------------
    Irrep   Nso     Nmo     Nalpha   Nbeta   Ndocc  Nsocc
   -------------------------------------------------------
     A        202     202       0       0       0       0
   -------------------------------------------------------
    Total     202     202      46      46      46       0
   -------------------------------------------------------

  ==> Integral Setup <==

  ==> DFJK: Density-Fitted J/K Matrices <==

    J tasked:                  Yes
    K tasked:                  Yes
    wK tasked:                  No
    OpenMP threads:              1
    Integrals threads:           1
    Memory (MB):              3576
    Algorithm:                Core
    Integral Cache:           NONE
    Schwarz Cutoff:          1E-12
    Fitting Condition:       1E-12

   => Auxiliary Basis Set <=

  Basis Set: 
    Number of shells: 385
    Number of basis function: 1165
    Number of Cartesian functions: 1377
    Spherical Harmonics?: true
    Max angular momentum: 4

  Minimum eigenvalue in the overlap matrix is 2.4028024547E-04.
  Using Symmetric Orthogonalization.
  SCF Guess: Superposition of Atomic Densities via on-the-fly atomic UHF.

  ==> Iterations <==

                           Total Energy        Delta E     RMS |[F,P]|

   @DF-RHF iter   0:  -585.33646946251406   -5.85336e+02   3.74006e-02 
   @DF-RHF iter   1:  -580.12282376242774    5.21365e+00   2.87936e-03 
   @DF-RHF iter   2:  -580.32158169471700   -1.98758e-01   1.50926e-03 DIIS
   @DF-RHF iter   3:  -580.36333643495368   -4.17547e-02   4.78789e-04 DIIS
   @DF-RHF iter   4:  -580.37064304791829   -7.30661e-03   1.55204e-04 DIIS
   @DF-RHF iter   5:  -580.37146240803099   -8.19360e-04   6.10104e-05 DIIS
   @DF-RHF iter   6:  -580.37168306754961   -2.20660e-04   2.46281e-05 DIIS
   @DF-RHF iter   7:  -580.37172152001426   -3.84525e-05   1.03388e-05 DIIS
   @DF-RHF iter   8:  -580.37172960844441   -8.08843e-06   4.10317e-06 DIIS
   @DF-RHF iter   9:  -580.37173150305443   -1.89461e-06   1.74504e-06 DIIS
   @DF-RHF iter  10:  -580.37173187539770   -3.72343e-07   5.97455e-07 DIIS
   @DF-RHF iter  11:  -580.37173190803355   -3.26359e-08   2.32784e-07 DIIS
   @DF-RHF iter  12:  -580.37173191272745   -4.69390e-09   1.10049e-07 DIIS
   @DF-RHF iter  13:  -580.37173191363649   -9.09040e-10   3.90172e-08 DIIS
   @DF-RHF iter  14:  -580.37173191377042   -1.33923e-10   1.48838e-08 DIIS
   @DF-RHF iter  15:  -580.37173191378702   -1.65983e-11   7.31644e-09 DIIS
   @DF-RHF iter  16:  -580.37173191379156   -4.54747e-12   2.87708e-09 DIIS
   @DF-RHF iter  17:  -580.37173191379270   -1.13687e-12   1.21665e-09 DIIS
   @DF-RHF iter  18:  -580.37173191379384   -1.13687e-12   6.41088e-10 DIIS
   @DF-RHF iter  19:  -580.37173191379384    0.00000e+00   2.12027e-10 DIIS
   @DF-RHF iter  20:  -580.37173191379293    9.09495e-13   9.64726e-11 DIIS

  ==> Post-Iterations <==

    Orbital Energies (a.u.)
    -----------------------

    Doubly Occupied:                                                      

       1A    -15.821820     2A    -15.792060     3A    -15.773294  
       4A    -15.755413     5A    -15.693600     6A    -11.611105  
       7A    -11.519437     8A    -11.390148     9A    -11.373173  
      10A    -11.345928    11A    -11.340960    12A    -11.338025  
      13A    -11.331181    14A     -1.551492    15A     -1.486768  
      16A     -1.408394    17A     -1.375855    18A     -1.308786  
      19A     -1.238580    20A     -1.136546    21A     -1.106142  
      22A     -1.068006    23A     -1.013774    24A     -0.995221  
      25A     -0.967273    26A     -0.930701    27A     -0.924122  
      28A     -0.881964    29A     -0.870629    30A     -0.855989  
      31A     -0.834749    32A     -0.827161    33A     -0.797976  
      34A     -0.757958    35A     -0.732982    36A     -0.721563  
      37A     -0.709893    38A     -0.660191    39A     -0.629852  
      40A     -0.625012    41A     -0.616273    42A     -0.582085  
      43A     -0.578795    44A     -0.560294    45A     -0.424107  
      46A     -0.417851  

    Virtual:                                                              

      47A     -0.030575    48A     -0.018638    49A      0.019323  
      50A      0.030002    51A      0.042879    52A      0.055796  
      53A      0.073461    54A      0.090275    55A      0.106218  
      56A      0.111825    57A      0.131449    58A      0.152371  
      59A      0.168296    60A      0.175018    61A      0.193772  
      62A      0.218431    63A      0.252196    64A      0.268458  
      65A      0.293145    66A      0.306963    67A      0.328506  
      68A      0.330539    69A      0.352369    70A      0.354715  
      71A      0.374874    72A      0.378235    73A      0.394076  
      74A      0.443987    75A      0.450384    76A      0.481757  
      77A      0.491644    78A      0.508463    79A      0.523730  
      80A      0.556113    81A      0.567078    82A      0.569178  
      83A      0.581538    84A      0.588121    85A      0.590054  
      86A      0.593152    87A      0.606225    88A      0.615740  
      89A      0.647032    90A      0.656796    91A      0.684700  
      92A      0.696246    93A      0.744195    94A      0.749149  
      95A      0.767655    96A      0.790098    97A      0.806728  
      98A      0.812113    99A      0.826151   100A      0.834099  
     101A      0.835463   102A      0.845115   103A      0.852008  
     104A      0.861354   105A      0.872852   106A      0.879120  
     107A      0.888414   108A      0.903693   109A      0.919710  
     110A      0.932847   111A      0.944478   112A      0.951508  
     113A      0.962073   114A      0.968477   115A      0.983230  
     116A      1.002985   117A      1.020378   118A      1.026485  
     119A      1.050373   120A      1.089954   121A      1.107160  
     122A      1.146343   123A      1.181154   124A      1.214538  
     125A      1.229026   126A      1.271043   127A      1.303368  
     128A      1.334338   129A      1.357636   130A      1.378910  
     131A      1.392182   132A      1.403709   133A      1.414471  
     134A      1.466559   135A      1.478542   136A      1.504368  
     137A      1.534290   138A      1.543436   139A      1.553485  
     140A      1.556677   141A      1.593463   142A      1.620405  
     143A      1.650504   144A      1.664243   145A      1.669832  
     146A      1.675312   147A      1.722783   148A      1.916387  
     149A      1.959613   150A      1.980926   151A      2.053959  
     152A      2.064029   153A      2.105534   154A      2.132113  
     155A      2.165491   156A      2.171084   157A      2.188213  
     158A      2.190143   159A      2.221869   160A      2.230447  
     161A      2.246429   162A      2.260739   163A      2.262409  
     164A      2.304974   165A      2.321361   166A      2.374038  
     167A      2.391605   168A      2.425321   169A      2.461086  
     170A      2.487068   171A      2.505804   172A      2.516123  
     173A      2.612351   174A      2.623926   175A      2.658062  
     176A      2.673116   177A      2.694044   178A      2.707682  
     179A      2.712514   180A      2.727011   181A      2.784703  
     182A      2.805077   183A      2.825368   184A      2.882242  
     185A      2.896636   186A      2.923160   187A      2.930427  
     188A      2.982089   189A      2.987754   190A      3.012856  
     191A      3.040323   192A      3.066076   193A      3.095448  
     194A      3.109000   195A      3.199471   196A      3.308197  
     197A      3.362719   198A      3.398169   199A      3.525244  
     200A      3.586484   201A      3.650410   202A      3.826212  

    Final Occupation by Irrep:
              A 
    DOCC [    46 ]

  Energy converged.

  @DF-RHF Final Energy:  -580.37173191379293

   => Energetics <=

    Nuclear Repulsion Energy =            757.9649924609500431
    One-Electron Energy =               -2277.3071940438603633
    Two-Electron Energy =                 938.9704696691171648
    DFT Exchange-Correlation Energy =       0.0000000000000000
    Empirical Dispersion Energy =           0.0000000000000000
    PCM Polarization Energy =               0.0000000000000000
    EFP Energy =                            0.0000000000000000
    Total Energy =                       -580.3717319137931554


  Saving occupied orbitals to File 180.

*** tstop() called on c-19-414.local at Mon May  1 19:06:51 2017
Module time:
	user time   =      20.58 seconds =       0.34 minutes
	system time =       1.01 seconds =       0.02 minutes
	total time  =         41 seconds =       0.68 minutes
Total time:
	user time   =      20.58 seconds =       0.34 minutes
	system time =       1.01 seconds =       0.02 minutes
	total time  =         41 seconds =       0.68 minutes


Properties will be evaluated at   0.000000,   0.000000,   0.000000 Bohr

Properties computed using the SCF density matrix

  Nuclear Dipole Moment: (a.u.)
     X:     0.9198      Y:    -1.1028      Z:     2.7756

  Electronic Dipole Moment: (a.u.)
     X:    -0.5755      Y:    -0.4527      Z:     2.0455

  Dipole Moment: (a.u.)
     X:     0.3442      Y:    -1.5555      Z:     4.8210     Total:     5.0775

  Dipole Moment: (Debye)
     X:     0.8750      Y:    -3.9538      Z:    12.2539     Total:    12.9056


  //>>>>>>>>>>>>>>>>>>>>>>>>>>>>>>>>>>>//
  //               DFMP2               //
  //<<<<<<<<<<<<<<<<<<<<<<<<<<<<<<<<<<<//


*** tstart() called on c-19-414.local
*** at Mon May  1 19:06:51 2017


*** tstop() called on c-19-414.local at Mon May  1 19:06:51 2017
Module time:
	user time   =       0.38 seconds =       0.01 minutes
	system time =       0.00 seconds =       0.00 minutes
	total time  =          0 seconds =       0.00 minutes
Total time:
	user time   =      20.99 seconds =       0.35 minutes
	system time =       1.01 seconds =       0.02 minutes
	total time  =         41 seconds =       0.68 minutes
	 --------------------------------------------------------
	                          DF-MP2                         
	      2nd-Order Density-Fitted Moller-Plesset Theory     
	              RMP2 Wavefunction,   1 Threads             
	                                                         
	        Rob Parrish, Justin Turney, Andy Simmonett,      
	           Ed Hohenstein, and C. David Sherrill          
	 --------------------------------------------------------

   => Auxiliary Basis Set <=

  Basis Set: DEF2-SV(P)-RI
    Number of shells: 268
    Number of basis function: 764
    Number of Cartesian functions: 865
    Spherical Harmonics?: true
    Max angular momentum: 3

	 --------------------------------------------------------
	                 NBF =   202, NAUX =   764
	 --------------------------------------------------------
	   CLASS    FOCC     OCC    AOCC    AVIR     VIR    FVIR
	   PAIRS      13      46      33     156     156       0
	 --------------------------------------------------------

DGAS Warning! /src/lib/libfock/apps.cc:80 is not currently checking restricted

         ------------------------------------------------------------
                                     CPHF                           
                                  Rob Parrish                       
         ------------------------------------------------------------

  ==> Geometry <==

    Molecular point group: c1
    Full point group: C1

    Geometry (in Angstrom), charge = 1, multiplicity = 1:

       Center              X                  Y                   Z               Mass       
    ------------   -----------------  -----------------  -----------------  -----------------
           C         -0.048034228764     1.002972049072    -3.532394978254    12.000000000000
           C         -1.432734228764     1.082472049072    -3.362194978254    12.000000000000
           C          0.788165771236     0.646172049072    -2.465894978254    12.000000000000
           C         -2.030734228764     0.803072049072    -2.128394978254    12.000000000000
           C          0.204265771236     0.360872049072    -1.223394978254    12.000000000000
           C         -1.173934228764     0.439272049072    -1.088594978254    12.000000000000
           C         -0.199634228764    -0.209927950928     0.816705021746    12.000000000000
           C          1.004765771236    -0.908627950928     2.771705021746    12.000000000000
           N          0.790065771236    -0.013727950928    -0.039194978254    14.003074004780
           N         -1.402434228764     0.083372049072     0.214605021746    14.003074004780
           N          2.201665771236    -0.655827950928     2.236205021746    14.003074004780
           N          0.962665771236    -1.432327950928     4.002205021746    14.003074004780
           N         -0.148334228764    -0.652427950928     2.122805021746    14.003074004780
           H          0.388665771236     1.219572049072    -4.506494978254     1.007825032070
           H         -2.060634228764     1.364172049072    -4.207494978254     1.007825032070
           H          1.863665771236     0.583072049072    -2.599694978254     1.007825032070
           H         -3.107334228764     0.860772049072    -1.994894978254     1.007825032070
           H         -2.303934228764     0.022672049072     0.663905021746     1.007825032070
           H          3.058065771236    -0.835527950928     2.737705021746     1.007825032070
           H          2.243165771236    -0.272927950928     1.295805021746     1.007825032070
           H          1.816165771236    -1.640127950928     4.500805021746     1.007825032070
           H          0.083965771236    -1.669827950928     4.440505021746     1.007825032070
           H         -0.993234228764    -0.816527950928     2.657005021746     1.007825032070

  Nuclear repulsion =  757.964992460950043
  Reference energy  = -580.371731913792928

  ==> Basis Set <==

  Basis Set: DEF2-SV(P)
    Number of shells: 98
    Number of basis function: 202
    Number of Cartesian functions: 215
    Spherical Harmonics?: true
    Max angular momentum: 2

  ==> CGRSolver (by Rob Parrish) <==

   Number of roots    =         1
   Preconditioning    =    JACOBI
   Convergence cutoff =     1E-06
   Maximum iterations =       100

  ==> CPHFRHamiltonian (by Rob Parrish) <== 

  ==> DFJK: Density-Fitted J/K Matrices <==

    J tasked:                  Yes
    K tasked:                  Yes
    wK tasked:                  No
    OpenMP threads:              1
    Integrals threads:           1
    Memory (MB):              3576
    Algorithm:                Core
    Integral Cache:           NONE
    Schwarz Cutoff:          1E-12
    Fitting Condition:       1E-12

   => Auxiliary Basis Set <=

  Basis Set: 
    Number of shells: 385
    Number of basis function: 1165
    Number of Cartesian functions: 1377
    Spherical Harmonics?: true
    Max angular momentum: 4

  ==> CPHF Iterations <==

  => Iterations <=

             Iter  Converged  Remaining    Residual
  CGR           1          0          1   1.269E-01
  CGR           2          0          1   3.933E-02
  CGR           3          0          1   2.019E-02
  CGR           4          0          1   6.189E-03
  CGR           5          0          1   3.431E-03
  CGR           6          0          1   1.253E-03
  CGR           7          0          1   4.748E-04
  CGR           8          0          1   1.623E-04
  CGR           9          0          1   5.709E-05
  CGR          10          0          1   2.256E-05
  CGR          11          0          1   5.922E-06
  CGR          12          0          1   2.080E-06
  CGR          13          1          0   9.959E-07

    CGRSolver converged.

  ==> DFCorrGrad: Density-Fitted Correlated Gradients <==

    OpenMP threads:              1
    Integrals threads:           1
    Memory (MB):              3576
    Schwarz Cutoff:          0E+00
    Fitting Condition:       1E-12

   => Auxiliary Basis Set <=

  Basis Set: 
    Number of shells: 385
    Number of basis function: 1165
    Number of Cartesian functions: 1377
    Spherical Harmonics?: true
    Max angular momentum: 4

	-----------------------------------------------------------
	 ==================> DF-MP2 Energies <==================== 
	-----------------------------------------------------------
	 Reference Energy          =    -580.3717319137929280 [Eh]
	 Singles Energy            =      -0.0000000000000001 [Eh]
	 Same-Spin Energy          =      -0.4867520407615224 [Eh]
	 Opposite-Spin Energy      =      -1.2897536066650979 [Eh]
	 Correlation Energy        =      -1.7765056474266205 [Eh]
	 Total Energy              =    -582.1482375612195028 [Eh]
	-----------------------------------------------------------
	 ================> DF-SCS-MP2 Energies <================== 
	-----------------------------------------------------------
	 SCS Same-Spin Scale       =       0.3333333333333333 [-]
	 SCS Opposite-Spin Scale   =       1.2000000000000000 [-]
	 SCS Same-Spin Energy      =      -0.1622506802538408 [Eh]
	 SCS Opposite-Spin Energy  =      -1.5477043279981173 [Eh]
	 SCS Correlation Energy    =      -1.7099550082519583 [Eh]
	 SCS Total Energy          =    -582.0816869220449234 [Eh]
	-----------------------------------------------------------


  -Total Gradient:
     Atom            X                  Y                   Z
    ------   -----------------  -----------------  -----------------
       1       -0.015986786419     0.004193079797    -0.010740826983
       2        0.013701036573     0.000996263899    -0.008503992874
       3        0.000038709257    -0.002826833681     0.009160648199
       4       -0.001067756788    -0.001779986022     0.007859044593
       5       -0.018404480840    -0.004073753466     0.010956305078
       6        0.014521071613    -0.000108911402    -0.003522164683
       7        0.018136160718    -0.021006070898     0.054268397804
       8       -0.027473456758     0.001071664567    -0.004802945463
       9       -0.015132247639     0.012509853854    -0.025442182259
      10        0.007504434723     0.008941010536    -0.025972515122
      11        0.021089657364     0.000234554316    -0.001965321037
      12        0.009235277988    -0.002222970306     0.003085005443
      13       -0.018951300957     0.004506397079    -0.015056949694
      14       -0.002121276189    -0.000857677660     0.003572183403
      15        0.003048823660    -0.001088019413     0.002678289807
      16       -0.006835049433     0.000330883282     0.000297028059
      17        0.006123569022    -0.000343516891    -0.000431156886
      18        0.008733199481    -0.000259209235    -0.000876511133
      19       -0.004725625343     0.002797725103    -0.005175483921
      20        0.002060809347    -0.004032928126     0.015168634430
      21       -0.003592025504     0.001376366720    -0.004122575954
      22        0.002958421852     0.002428214313    -0.004634828990
      23        0.007138834262    -0.000786136363     0.004201918184


			-----------------------------------------
			 OPTKING 2.0: for geometry optimizations 
			  - R.A. King,  Bethel University        
			-----------------------------------------

	Internal coordinates to be generated automatically.
	Detected frag 1 with atoms:  1 2 3 4 5 6 7 8 9 10 11 12 13 14 15 16 17 18 19 20
	 21 22 23
	---Fragment 1 Bond Connectivity---
	 1 : 2 3 14
	 2 : 1 4 15
	 3 : 1 5 16
	 4 : 2 6 17
	 5 : 3 6 9
	 6 : 4 5 10
	 7 : 9 10 13
	 8 : 11 12 13
	 9 : 5 7
	 10 : 6 7 18
	 11 : 8 19 20
	 12 : 8 21 22
	 13 : 7 8 23
	 14 : 1
	 15 : 2
	 16 : 3
	 17 : 4
	 18 : 10
	 19 : 11
	 20 : 11
	 21 : 12
	 22 : 12
	 23 : 13

	---Fragment 1 Geometry and Gradient---
	 C          -0.0907715374        1.8953424917       -6.6752591021
	 C          -2.7074753136        2.0455757193       -6.3536277143
	 C           1.4894174550        1.2210882075       -4.6598661814
	 C          -3.8375315410        1.5175862377       -4.0220836115
	 C           0.3860063660        0.6819493418       -2.3118814612
	 C          -2.2184141904        0.8301038706       -2.0571463785
	 C          -0.3772540191       -0.3967063349        1.5433488225
	 C           1.8987321353       -1.7170579839        5.2377634122
	 N           1.4930079346       -0.0259420676       -0.0740677747
	 N          -2.6502166117        0.1575503399        0.4055447178
	 N           4.1605453438       -1.2393352175        4.2258150681
	 N           1.8191746651       -2.7067075597        7.5630714188
	 N          -0.2803110685       -1.2329101487        4.0115201246
	 H           0.7344718649        2.3046571721       -8.5160413281
	 H          -3.8940343524        2.5779115709       -7.9510132144
	 H           3.5218179109        1.1018464885       -4.9127115379
	 H          -5.8720106957        1.6266234356       -3.7698051728
	 H          -4.3538047205        0.0428439636        1.2545986693
	 H           5.7789068040       -1.5789190036        5.1735127237
	 H           4.2389689783       -0.5157590813        2.4487166127
	 H           3.4320559196       -3.0993926501        8.5052888686
	 H           0.1586723122       -3.1555175163        8.3913383828
	 H          -1.8769406782       -1.5430142071        5.0210118248
	            -0.0159867864        0.0041930798       -0.0107408270
	             0.0137010366        0.0009962639       -0.0085039929
	             0.0000387093       -0.0028268337        0.0091606482
	            -0.0010677568       -0.0017799860        0.0078590446
	            -0.0184044808       -0.0040737535        0.0109563051
	             0.0145210716       -0.0001089114       -0.0035221647
	             0.0181361607       -0.0210060709        0.0542683978
	            -0.0274734568        0.0010716646       -0.0048029455
	            -0.0151322476        0.0125098539       -0.0254421823
	             0.0075044347        0.0089410105       -0.0259725151
	             0.0210896574        0.0002345543       -0.0019653210
	             0.0092352780       -0.0022229703        0.0030850054
	            -0.0189513010        0.0045063971       -0.0150569497
	            -0.0021212762       -0.0008576777        0.0035721834
	             0.0030488237       -0.0010880194        0.0026782898
	            -0.0068350494        0.0003308833        0.0002970281
	             0.0061235690       -0.0003435169       -0.0004311569
	             0.0087331995       -0.0002592092       -0.0008765111
	            -0.0047256253        0.0027977251       -0.0051754839
	             0.0020608093       -0.0040329281        0.0151686344
	            -0.0035920255        0.0013763667       -0.0041225760
	             0.0029584219        0.0024282143       -0.0046348290
	             0.0071388343       -0.0007861364        0.0042019182

	Previous optimization step data not found.  Starting new optimization.

	---Fragment 1 Intrafragment Coordinates---
	 - Coordinate -           - BOHR/RAD -       - ANG/DEG -
	 H(9,20)          =         3.760939	       1.990203
	 R(1,2)           =         2.640673	       1.397384
	 R(1,3)           =         2.648287	       1.401413
	 R(1,14)          =         2.058408	       1.089263
	 R(2,4)           =         2.644220	       1.399261
	 R(2,15)          =         2.059841	       1.090021
	 R(3,5)           =         2.649758	       1.402192
	 R(3,16)          =         2.051536	       1.085626
	 R(4,6)           =         2.637262	       1.395579
	 R(4,17)          =         2.052959	       1.086379
	 R(5,6)           =         2.621039	       1.386994
	 R(5,9)           =         2.595067	       1.373250
	 R(6,10)          =         2.589137	       1.370112
	 R(7,9)           =         2.500276	       1.323089
	 R(7,10)          =         2.601568	       1.376691
	 R(7,13)          =         2.607778	       1.379977
	 R(8,11)          =         2.523501	       1.335379
	 R(8,12)          =         2.528397	       1.337970
	 R(8,13)          =         2.546822	       1.347720
	 R(10,18)         =         1.906899	       1.009087
	 R(11,19)         =         1.905923	       1.008571
	 R(11,20)         =         1.920362	       1.016212
	 R(12,21)         =         1.908759	       1.010072
	 R(12,22)         =         1.909116	       1.010261
	 R(13,23)         =         1.914279	       1.012993
	 B(1,2,4)         =         2.117092	     121.300440
	 B(1,2,15)        =         2.084107	     119.410558
	 B(1,3,5)         =         2.068808	     118.533957
	 B(1,3,16)        =         2.108451	     120.805344
	 B(2,1,3)         =         2.109543	     120.867925
	 B(2,1,14)        =         2.088497	     119.662039
	 B(2,4,6)         =         2.033800	     116.528161
	 B(2,4,17)        =         2.119135	     121.417519
	 B(3,1,14)        =         2.085145	     119.469986
	 B(3,5,6)         =         2.081050	     119.235359
	 B(3,5,9)         =         2.267889	     129.940481
	 B(4,2,15)        =         2.081980	     119.288643
	 B(4,6,5)         =         2.156000	     123.529692
	 B(4,6,10)        =         2.310413	     132.376939
	 B(5,3,16)        =         2.105888	     120.658488
	 B(5,6,10)        =         1.816745	     104.091816
	 B(5,9,7)         =         1.853757	     106.212444
	 B(6,4,17)        =         2.130223	     122.052761
	 B(6,5,9)         =         1.934229	     110.823148
	 B(6,10,7)        =         1.902470	     109.003503
	 B(6,10,18)       =         2.199538	     126.024264
	 B(7,10,18)       =         2.180945	     124.958943
	 B(7,13,8)        =         2.151326	     123.261901
	 B(7,13,23)       =         2.117713	     121.336005
	 B(8,11,19)       =         2.126970	     121.866431
	 B(8,11,20)       =         2.070342	     118.621846
	 B(8,12,21)       =         2.103559	     120.525054
	 B(8,12,22)       =         2.115757	     121.223971
	 B(8,13,23)       =         2.014089	     115.398791
	 B(9,7,10)        =         1.916676	     109.817465
	 B(9,7,13)        =         2.254936	     129.198317
	 B(10,7,13)       =         2.111493	     120.979665
	 B(11,8,12)       =         2.061334	     118.105736
	 B(11,8,13)       =         2.138624	     122.534155
	 B(12,8,13)       =         2.083220	     119.359732
	 B(19,11,20)      =         2.085872	     119.511655
	 B(21,12,22)      =         2.062839	     118.191960
	 D(1,2,4,6)       =        -0.003836	      -0.219791
	 D(1,2,4,17)      =        -3.137657	    -179.774479
	 D(1,3,5,6)       =         0.000536	       0.030722
	 D(1,3,5,9)       =         3.135103	     179.628156
	 D(2,1,3,5)       =         0.007545	       0.432321
	 D(2,1,3,16)      =         3.139758	     179.894881
	 D(2,4,6,5)       =         0.012374	       0.708979
	 D(2,4,6,10)      =        -3.119978	    -178.761565
	 D(3,1,2,4)       =        -0.005893	      -0.337640
	 D(3,1,2,15)      =         3.139527	     179.881637
	 D(3,5,6,4)       =        -0.010879	      -0.623315
	 D(3,5,6,10)      =         3.123676	     178.973429
	 D(3,5,9,7)       =        -3.101870	    -177.724043
	 D(4,2,1,14)      =         3.134276	     179.580802
	 D(4,6,5,9)       =         3.136477	     179.706906
	 D(4,6,10,7)      =         3.120712	     178.803640
	 D(4,6,10,18)     =         0.001417	       0.081167
	 D(5,3,1,14)      =        -3.132626	    -179.486276
	 D(5,6,4,17)      =        -3.137044	    -179.739397
	 D(5,6,10,7)      =        -0.012938	      -0.741313
	 D(5,6,10,18)     =        -3.132234	    -179.463787
	 D(5,9,7,10)      =        -0.040813	      -2.338398
	 D(5,9,7,13)      =         3.087110	     176.878350
	 D(6,4,2,15)      =         3.133934	     179.561194
	 D(6,5,3,16)      =        -3.131691	    -179.432656
	 D(6,5,9,7)       =         0.033163	       1.900121
	 D(6,10,7,9)      =         0.034691	       1.987626
	 D(6,10,7,13)     =        -3.094545	    -177.304392
	 D(7,13,8,11)     =         0.093208	       5.340449
	 D(7,13,8,12)     =        -3.052360	    -174.887363
	 D(8,13,7,9)      =         0.056169	       3.218248
	 D(8,13,7,10)     =        -3.100424	    -177.641227
	 D(9,5,3,16)      =         0.002876	       0.164778
	 D(9,5,6,10)      =        -0.012154	      -0.696350
	 D(9,7,10,18)     =        -3.128905	    -179.273070
	 D(9,7,13,23)     =        -3.073347	    -176.089808
	 D(10,6,4,17)     =         0.013789	       0.790059
	 D(10,7,13,23)    =         0.053245	       3.050717
	 D(11,8,12,21)    =        -0.014788	      -0.847304
	 D(11,8,12,22)    =        -3.106736	    -178.002856
	 D(11,8,13,23)    =        -3.059803	    -175.313798
	 D(12,8,11,19)    =        -0.016425	      -0.941091
	 D(12,8,11,20)    =         3.123508	     178.963800
	 D(12,8,13,23)    =         0.077814	       4.458391
	 D(13,7,10,18)    =         0.025044	       1.434911
	 D(13,8,11,19)    =         3.121239	     178.833814
	 D(13,8,11,20)    =        -0.022014	      -1.261295
	 D(13,8,12,21)    =         3.130605	     179.370433
	 D(13,8,12,22)    =         0.038657	       2.214881
	 D(14,1,2,15)     =        -0.003489	      -0.199921
	 D(14,1,3,16)     =        -0.000414	      -0.023716
	 D(15,2,4,17)     =         0.000114	       0.006506
	 R(9,11)          =         5.203563	       2.753607

	Current energy   :      -582.1482375612

	Generating empirical Hessian (Schlegel '84) for each fragment.
	Taking RFO optimization step.
	Going to follow RFO solution 1.
	Using RFO vector 1.
	Norm of target step-size    0.29678
	Projected energy change by RFO approximation:        -0.0144749842

	Back-transformation to cartesian coordinates...
	The INTCO_EXCEPTion handler:
	TORS::compute_val: unable to compute torsion value
	Dynamic level is 0.
	exc.g_really_quit() is 0.

  **** Optimization has failed! (in 1 steps) ****
			--------------------------
			 OPTKING Finished Execution 
			--------------------------
	Cleaning optimization helper files.

*** Psi4 exiting successfully. Buy a developer a beer!
