    -----------------------------------------------------------------------
          Psi4: An Open-Source Ab Initio Electronic Structure Package
                              Psi4 1.0.24 Driver

                          Git: Rev {master} 45aac03 dirty

    J. M. Turney, A. C. Simmonett, R. M. Parrish, E. G. Hohenstein,
    F. A. Evangelista, J. T. Fermann, B. J. Mintz, L. A. Burns, J. J. Wilke,
    M. L. Abrams, N. J. Russ, M. L. Leininger, C. L. Janssen, E. T. Seidl,
    W. D. Allen, H. F. Schaefer, R. A. King, E. F. Valeev, C. D. Sherrill,
    and T. D. Crawford, WIREs Comput. Mol. Sci. 2, 556-565 (2012)
    (doi: 10.1002/wcms.93)

                         Additional Contributions by
    A. E. DePrince, U. Bozkaya, A. Yu. Sokolov, D. G. A. Smith, R. Di Remigio,
    R. M. Richard, J. F. Gonthier, H. R. McAlexander, M. Saitow, and
    B. P. Pritchard
    -----------------------------------------------------------------------


    Psi4 started on: Wed Mar 15 00:54:32 2017

    Process ID: 111058
    PSI4DATADIR: /home/limvt/local/miniconda2/share/psi4
    Memory level set to 256.000 MB

  ==> Input File <==

--------------------------------------------------------------------------
memory 5.0 Gb
molecule AlkEthOH_c1178_1 {
  0 1
  C     0.2379     1.3772     -3.1189
  C     0.2691    -0.8621      2.5232
  C     0.9818    -1.9684      0.3928
  C    -1.7523    -0.8724      0.0156
  C    -1.0153     1.3317      0.9769
  C    -0.7051     0.8352     -2.0619
  C     0.5885    -0.6424      1.0505
  C    -0.5661     0.0558      0.2662
  O     1.7100     0.2343      1.0342
  O     0.0858     0.4086     -0.9699
  H     0.8021     2.2370     -2.7210
  H     0.9569     0.5972     -3.4208
  H    -0.3248     1.7035     -4.0110
  H     0.1258     0.0999      3.0399
  H    -0.6254    -1.4927      2.6627
  H     1.1293    -1.3688      2.9939
  H     1.1506    -1.8253     -0.6877
  H     1.9242    -2.3101      0.8540
  H     0.2175    -2.7519      0.5362
  H    -1.4793    -1.6947     -0.6658
  H    -2.1095    -1.3057      0.9652
  H    -2.5954    -0.3169     -0.4313
  H    -0.1321     1.9284      1.2559
  H    -1.6629     1.9343      0.3169
  H    -1.5964     1.0984      1.8850
  H    -1.2929    -0.0092     -2.4727
  H    -1.4222     1.6213     -1.7539
  H     1.7893     0.5287      0.1054
  units angstrom
}

set basis cc-pVTZ
set freeze_core True
energy('mp2')--------------------------------------------------------------------------

  Memory set to   5.000 GiB by Python script.
    SCF Algorithm Type (re)set to DF.

*** tstart() called on c-19-411.local
*** at Wed Mar 15 00:54:34 2017


         ---------------------------------------------------------
                                   SCF
            by Justin Turney, Rob Parrish, and Andy Simmonett
                              RHF Reference
                        1 Threads,   5000 MiB Core
         ---------------------------------------------------------

  ==> Geometry <==

    Molecular point group: c1
    Full point group: C1

    Geometry (in Angstrom), charge = 0, multiplicity = 1:

       Center              X                  Y                   Z               Mass       
    ------------   -----------------  -----------------  -----------------  -----------------
           C          0.237898588121     1.377190762232    -3.118900350733    12.000000000000
           C          0.269098588121    -0.862109237768     2.523199649267    12.000000000000
           C          0.981798588121    -1.968409237768     0.392799649267    12.000000000000
           C         -1.752301411879    -0.872409237768     0.015599649267    12.000000000000
           C         -1.015301411879     1.331690762232     0.976899649267    12.000000000000
           C         -0.705101411879     0.835190762232    -2.061900350733    12.000000000000
           C          0.588498588121    -0.642409237768     1.050499649267    12.000000000000
           C         -0.566101411879     0.055790762232     0.266199649267    12.000000000000
           O          1.709998588121     0.234290762232     1.034199649267    15.994914619560
           O          0.085798588121     0.408590762232    -0.969900350733    15.994914619560
           H          0.802098588121     2.236990762232    -2.721000350733     1.007825032070
           H          0.956898588121     0.597190762232    -3.420800350733     1.007825032070
           H         -0.324801411879     1.703490762232    -4.011000350733     1.007825032070
           H          0.125798588121     0.099890762232     3.039899649267     1.007825032070
           H         -0.625401411879    -1.492709237768     2.662699649267     1.007825032070
           H          1.129298588121    -1.368809237768     2.993899649267     1.007825032070
           H          1.150598588121    -1.825309237768    -0.687700350733     1.007825032070
           H          1.924198588121    -2.310109237768     0.853999649267     1.007825032070
           H          0.217498588121    -2.751909237768     0.536199649267     1.007825032070
           H         -1.479301411879    -1.694709237768    -0.665800350733     1.007825032070
           H         -2.109501411879    -1.305709237768     0.965199649267     1.007825032070
           H         -2.595401411879    -0.316909237768    -0.431300350733     1.007825032070
           H         -0.132101411879     1.928390762232     1.255899649267     1.007825032070
           H         -1.662901411879     1.934290762232     0.316899649267     1.007825032070
           H         -1.596401411879     1.098390762232     1.884999649267     1.007825032070
           H         -1.292901411879    -0.009209237768    -2.472700350733     1.007825032070
           H         -1.422201411879     1.621290762232    -1.753900350733     1.007825032070
           H          1.789298588121     0.528690762232     0.105399649267     1.007825032070

  Running in c1 symmetry.

  Rotational constants: A =      0.06466  B =      0.03013  C =      0.02806 [cm^-1]
  Rotational constants: A =   1938.39244  B =    903.23591  C =    841.30968 [MHz]
  Nuclear repulsion =  630.181041339200760

  Charge       = 0
  Multiplicity = 1
  Electrons    = 82
  Nalpha       = 41
  Nbeta        = 41

  ==> Algorithm <==

  SCF Algorithm Type is DF.
  DIIS enabled.
  MOM disabled.
  Fractional occupation disabled.
  Guess Type is SAD.
  Energy threshold   = 1.00e-08
  Density threshold  = 1.00e-08
  Integral threshold = 0.00e+00

  ==> Primary Basis <==

  Basis Set: CC-PVTZ
    Number of shells: 208
    Number of basis function: 552
    Number of Cartesian functions: 620
    Spherical Harmonics?: true
    Max angular momentum: 3

  ==> Pre-Iterations <==

   -------------------------------------------------------
    Irrep   Nso     Nmo     Nalpha   Nbeta   Ndocc  Nsocc
   -------------------------------------------------------
     A        552     552       0       0       0       0
   -------------------------------------------------------
    Total     552     552      41      41      41       0
   -------------------------------------------------------

  ==> Integral Setup <==

  ==> DFJK: Density-Fitted J/K Matrices <==

    J tasked:                  Yes
    K tasked:                  Yes
    wK tasked:                  No
    OpenMP threads:              1
    Integrals threads:           1
    Memory (MB):              3576
    Algorithm:                Core
    Integral Cache:           NONE
    Schwarz Cutoff:          1E-12
    Fitting Condition:       1E-12

   => Auxiliary Basis Set <=

  Basis Set: 
    Number of shells: 430
    Number of basis function: 1330
    Number of Cartesian functions: 1590
    Spherical Harmonics?: true
    Max angular momentum: 4

  Minimum eigenvalue in the overlap matrix is 2.2968620135E-04.
  Using Symmetric Orthogonalization.
  SCF Guess: Superposition of Atomic Densities via on-the-fly atomic UHF.

  ==> Iterations <==

                           Total Energy        Delta E     RMS |[F,P]|

   @DF-RHF iter   0:  -467.30665342751388   -4.67307e+02   1.07430e-02 
   @DF-RHF iter   1:  -462.97808184128610    4.32857e+00   1.26020e-03 
   @DF-RHF iter   2:  -463.24096519961915   -2.62883e-01   6.43171e-04 DIIS
   @DF-RHF iter   3:  -463.29140246493864   -5.04373e-02   2.16858e-04 DIIS
   @DF-RHF iter   4:  -463.30097854172993   -9.57608e-03   4.79277e-05 DIIS
   @DF-RHF iter   5:  -463.30159828140415   -6.19740e-04   1.65994e-05 DIIS
   @DF-RHF iter   6:  -463.30166969377308   -7.14124e-05   4.76099e-06 DIIS
   @DF-RHF iter   7:  -463.30167655483149   -6.86106e-06   1.48165e-06 DIIS
   @DF-RHF iter   8:  -463.30167713291723   -5.78086e-07   5.26609e-07 DIIS
   @DF-RHF iter   9:  -463.30167720712541   -7.42082e-08   1.50633e-07 DIIS
   @DF-RHF iter  10:  -463.30167721348437   -6.35896e-09   5.00143e-08 DIIS
   @DF-RHF iter  11:  -463.30167721412784   -6.43468e-10   1.22580e-08 DIIS
   @DF-RHF iter  12:  -463.30167721417422   -4.63842e-11   3.16675e-09 DIIS

  ==> Post-Iterations <==

    Orbital Energies (a.u.)
    -----------------------

    Doubly Occupied:                                                      

       1A    -20.555115     2A    -20.533014     3A    -11.287723  
       4A    -11.280761     5A    -11.277462     6A    -11.223489  
       7A    -11.222297     8A    -11.213411     9A    -11.210737  
      10A    -11.206652    11A     -1.384794    12A     -1.338011  
      13A     -1.085871    14A     -1.018447    15A     -0.996960  
      16A     -0.945988    17A     -0.920716    18A     -0.863678  
      19A     -0.805460    20A     -0.736830    21A     -0.691894  
      22A     -0.661762    23A     -0.654140    24A     -0.627122  
      25A     -0.600997    26A     -0.588600    27A     -0.571886  
      28A     -0.557435    29A     -0.547201    30A     -0.544901  
      31A     -0.528006    32A     -0.523012    33A     -0.518269  
      34A     -0.516668    35A     -0.511838    36A     -0.494680  
      37A     -0.490345    38A     -0.464092    39A     -0.446774  
      40A     -0.428405    41A     -0.404632  

    Virtual:                                                              

      42A      0.130784    43A      0.153548    44A      0.161047  
      45A      0.170583    46A      0.189435    47A      0.193359  
      48A      0.197010    49A      0.213570    50A      0.214296  
      51A      0.219699    52A      0.223741    53A      0.230425  
      54A      0.244994    55A      0.252524    56A      0.262219  
      57A      0.277352    58A      0.283033    59A      0.283904  
      60A      0.287688    61A      0.314148    62A      0.324003  
      63A      0.335039    64A      0.344814    65A      0.351250  
      66A      0.361383    67A      0.376775    68A      0.388250  
      69A      0.401739    70A      0.408681    71A      0.433653  
      72A      0.451600    73A      0.467300    74A      0.477548  
      75A      0.486126    76A      0.496523    77A      0.503399  
      78A      0.518682    79A      0.532587    80A      0.537088  
      81A      0.547591    82A      0.564911    83A      0.567485  
      84A      0.576345    85A      0.590293    86A      0.600852  
      87A      0.611284    88A      0.614660    89A      0.623063  
      90A      0.625123    91A      0.630044    92A      0.637686  
      93A      0.640345    94A      0.642002    95A      0.651836  
      96A      0.656822    97A      0.660459    98A      0.663448  
      99A      0.678116   100A      0.681123   101A      0.686998  
     102A      0.687977   103A      0.692518   104A      0.699139  
     105A      0.702240   106A      0.710319   107A      0.717246  
     108A      0.728622   109A      0.740658   110A      0.765887  
     111A      0.775278   112A      0.790271   113A      0.825731  
     114A      0.833028   115A      0.840664   116A      0.870014  
     117A      0.881350   118A      0.897125   119A      0.916128  
     120A      0.939945   121A      0.946017   122A      0.956065  
     123A      0.961766   124A      0.975048   125A      0.990500  
     126A      1.005843   127A      1.013998   128A      1.034484  
     129A      1.051861   130A      1.060644   131A      1.068525  
     132A      1.080662   133A      1.086365   134A      1.095430  
     135A      1.112693   136A      1.121480   137A      1.141157  
     138A      1.143883   139A      1.165863   140A      1.171587  
     141A      1.180936   142A      1.187395   143A      1.192036  
     144A      1.203770   145A      1.213521   146A      1.221008  
     147A      1.225677   148A      1.237221   149A      1.246296  
     150A      1.261972   151A      1.270285   152A      1.271353  
     153A      1.292048   154A      1.301876   155A      1.305042  
     156A      1.318082   157A      1.326115   158A      1.333012  
     159A      1.345368   160A      1.361015   161A      1.375116  
     162A      1.379731   163A      1.391500   164A      1.396221  
     165A      1.403511   166A      1.417813   167A      1.426221  
     168A      1.430381   169A      1.451283   170A      1.461530  
     171A      1.463585   172A      1.472077   173A      1.479797  
     174A      1.486517   175A      1.491008   176A      1.504092  
     177A      1.511694   178A      1.515249   179A      1.524912  
     180A      1.536654   181A      1.545190   182A      1.554275  
     183A      1.563537   184A      1.577697   185A      1.580009  
     186A      1.586665   187A      1.600554   188A      1.604681  
     189A      1.625819   190A      1.638169   191A      1.654899  
     192A      1.660078   193A      1.663219   194A      1.684443  
     195A      1.696200   196A      1.705909   197A      1.715162  
     198A      1.733261   199A      1.741767   200A      1.750591  
     201A      1.755478   202A      1.770746   203A      1.779837  
     204A      1.790609   205A      1.802953   206A      1.811965  
     207A      1.815216   208A      1.825693   209A      1.834549  
     210A      1.855670   211A      1.885046   212A      1.907989  
     213A      1.931542   214A      1.937883   215A      1.968920  
     216A      2.013536   217A      2.041133   218A      2.057386  
     219A      2.095824   220A      2.170672   221A      2.220542  
     222A      2.243739   223A      2.309480   224A      2.364972  
     225A      2.377297   226A      2.397886   227A      2.438933  
     228A      2.453735   229A      2.500719   230A      2.539503  
     231A      2.556467   232A      2.588423   233A      2.605754  
     234A      2.623924   235A      2.635191   236A      2.654764  
     237A      2.676990   238A      2.698960   239A      2.723789  
     240A      2.735477   241A      2.764515   242A      2.778052  
     243A      2.797075   244A      2.807346   245A      2.818425  
     246A      2.823613   247A      2.849168   248A      2.855445  
     249A      2.885126   250A      2.895579   251A      2.910441  
     252A      2.921804   253A      2.928198   254A      2.940115  
     255A      2.958543   256A      2.968781   257A      2.984637  
     258A      2.990417   259A      3.000567   260A      3.016084  
     261A      3.025816   262A      3.042191   263A      3.047922  
     264A      3.069944   265A      3.075396   266A      3.095835  
     267A      3.102583   268A      3.114066   269A      3.116116  
     270A      3.121443   271A      3.124128   272A      3.133194  
     273A      3.150653   274A      3.158662   275A      3.168952  
     276A      3.178952   277A      3.193781   278A      3.215830  
     279A      3.223268   280A      3.239325   281A      3.262050  
     282A      3.272584   283A      3.283516   284A      3.290833  
     285A      3.306258   286A      3.313032   287A      3.323991  
     288A      3.328407   289A      3.340478   290A      3.345100  
     291A      3.351060   292A      3.352401   293A      3.366640  
     294A      3.372438   295A      3.384477   296A      3.387720  
     297A      3.398263   298A      3.404792   299A      3.410571  
     300A      3.428385   301A      3.441963   302A      3.443249  
     303A      3.445596   304A      3.453374   305A      3.462836  
     306A      3.466796   307A      3.474967   308A      3.482411  
     309A      3.488704   310A      3.500059   311A      3.517599  
     312A      3.521967   313A      3.548390   314A      3.552402  
     315A      3.563917   316A      3.576716   317A      3.579480  
     318A      3.590872   319A      3.612337   320A      3.617584  
     321A      3.623728   322A      3.628434   323A      3.631187  
     324A      3.647477   325A      3.661455   326A      3.669614  
     327A      3.680023   328A      3.688351   329A      3.697712  
     330A      3.710290   331A      3.713662   332A      3.730286  
     333A      3.736188   334A      3.744737   335A      3.753983  
     336A      3.762322   337A      3.770478   338A      3.782277  
     339A      3.795212   340A      3.804910   341A      3.814291  
     342A      3.825083   343A      3.830380   344A      3.835684  
     345A      3.845639   346A      3.858319   347A      3.860781  
     348A      3.868053   349A      3.875587   350A      3.898202  
     351A      3.900519   352A      3.920965   353A      3.923821  
     354A      3.933116   355A      3.950562   356A      3.962470  
     357A      3.980947   358A      3.982273   359A      3.994526  
     360A      4.005453   361A      4.008456   362A      4.041437  
     363A      4.059643   364A      4.071623   365A      4.086264  
     366A      4.094849   367A      4.105714   368A      4.116373  
     369A      4.129889   370A      4.140346   371A      4.156185  
     372A      4.163264   373A      4.173726   374A      4.181291  
     375A      4.184221   376A      4.201750   377A      4.212894  
     378A      4.219844   379A      4.229395   380A      4.241842  
     381A      4.248548   382A      4.272568   383A      4.281053  
     384A      4.297843   385A      4.302408   386A      4.315439  
     387A      4.324385   388A      4.338535   389A      4.343032  
     390A      4.346939   391A      4.368583   392A      4.372962  
     393A      4.380544   394A      4.388831   395A      4.392131  
     396A      4.402391   397A      4.413440   398A      4.418181  
     399A      4.425259   400A      4.432059   401A      4.440263  
     402A      4.452520   403A      4.458104   404A      4.465334  
     405A      4.474333   406A      4.480050   407A      4.491744  
     408A      4.494543   409A      4.498197   410A      4.513199  
     411A      4.525255   412A      4.538408   413A      4.547805  
     414A      4.555349   415A      4.563814   416A      4.568586  
     417A      4.594645   418A      4.611637   419A      4.621833  
     420A      4.633456   421A      4.637002   422A      4.659738  
     423A      4.659933   424A      4.679703   425A      4.692986  
     426A      4.700038   427A      4.709328   428A      4.726607  
     429A      4.730445   430A      4.754265   431A      4.765767  
     432A      4.791020   433A      4.808917   434A      4.818243  
     435A      4.846349   436A      4.851184   437A      4.880791  
     438A      4.915432   439A      4.945347   440A      4.964476  
     441A      4.969312   442A      5.000997   443A      5.010539  
     444A      5.034432   445A      5.060195   446A      5.076489  
     447A      5.078007   448A      5.098410   449A      5.131670  
     450A      5.139945   451A      5.152050   452A      5.155443  
     453A      5.162974   454A      5.176173   455A      5.187906  
     456A      5.202471   457A      5.214044   458A      5.215587  
     459A      5.225171   460A      5.235835   461A      5.251888  
     462A      5.272790   463A      5.280461   464A      5.314093  
     465A      5.319976   466A      5.348294   467A      5.395029  
     468A      5.407913   469A      5.433692   470A      5.448987  
     471A      5.458451   472A      5.471444   473A      5.482585  
     474A      5.506821   475A      5.513321   476A      5.520888  
     477A      5.531062   478A      5.541885   479A      5.559239  
     480A      5.563634   481A      5.571456   482A      5.594618  
     483A      5.602760   484A      5.622961   485A      5.629291  
     486A      5.639469   487A      5.643292   488A      5.648571  
     489A      5.662944   490A      5.666708   491A      5.674875  
     492A      5.694296   493A      5.704535   494A      5.714803  
     495A      5.737373   496A      5.746497   497A      5.747331  
     498A      5.765047   499A      5.791510   500A      5.801865  
     501A      5.847662   502A      5.854340   503A      5.867227  
     504A      5.903123   505A      5.914567   506A      5.924032  
     507A      5.967960   508A      6.017529   509A      6.042520  
     510A      6.071227   511A      6.194094   512A      6.238835  
     513A      6.258561   514A      6.278430   515A      6.299088  
     516A      6.304193   517A      6.322084   518A      6.338022  
     519A      6.366375   520A      6.381274   521A      6.397105  
     522A      6.447248   523A      6.475075   524A      6.515352  
     525A      6.563097   526A      6.658500   527A      6.741529  
     528A      6.828406   529A      6.902853   530A      6.997643  
     531A      7.184603   532A      7.223139   533A      7.359350  
     534A      7.390607   535A      7.457275   536A      7.523140  
     537A      7.560887   538A      7.671409   539A      7.861281  
     540A      7.955832   541A      7.987645   542A      8.056581  
     543A     10.630934   544A     11.786701   545A     12.352092  
     546A     13.488680   547A     13.538104   548A     14.015088  
     549A     14.294371   550A     14.387559   551A     14.523611  
     552A     14.599962  

    Final Occupation by Irrep:
              A 
    DOCC [    41 ]

  Energy converged.

  @DF-RHF Final Energy:  -463.30167721417422

   => Energetics <=

    Nuclear Repulsion Energy =            630.1810413392007604
    One-Electron Energy =               -1882.0052900267464793
    Two-Electron Energy =                 788.5225714733717268
    DFT Exchange-Correlation Energy =       0.0000000000000000
    Empirical Dispersion Energy =           0.0000000000000000
    PCM Polarization Energy =               0.0000000000000000
    EFP Energy =                            0.0000000000000000
    Total Energy =                       -463.3016772141738784


  Saving occupied orbitals to File 180.

*** tstop() called on c-19-411.local at Wed Mar 15 00:56:57 2017
Module time:
	user time   =     105.97 seconds =       1.77 minutes
	system time =       2.84 seconds =       0.05 minutes
	total time  =        143 seconds =       2.38 minutes
Total time:
	user time   =     105.97 seconds =       1.77 minutes
	system time =       2.84 seconds =       0.05 minutes
	total time  =        143 seconds =       2.38 minutes


Properties will be evaluated at   0.000000,   0.000000,   0.000000 Bohr

Properties computed using the SCF density matrix

  Nuclear Dipole Moment: (a.u.)
     X:    -4.8149      Y:    -1.2407      Z:    -1.4519

  Electronic Dipole Moment: (a.u.)
     X:     3.8907      Y:     1.1612      Z:     0.9163

  Dipole Moment: (a.u.)
     X:    -0.9241      Y:    -0.0795      Z:    -0.5357     Total:     1.0711

  Dipole Moment: (Debye)
     X:    -2.3489      Y:    -0.2020      Z:    -1.3615     Total:     2.7225


  //>>>>>>>>>>>>>>>>>>>>>>>>>>>>>>>>>>>//
  //               DFMP2               //
  //<<<<<<<<<<<<<<<<<<<<<<<<<<<<<<<<<<<//


*** tstart() called on c-19-411.local
*** at Wed Mar 15 00:56:57 2017


*** tstop() called on c-19-411.local at Wed Mar 15 00:56:58 2017
Module time:
	user time   =       0.60 seconds =       0.01 minutes
	system time =       0.01 seconds =       0.00 minutes
	total time  =          1 seconds =       0.02 minutes
Total time:
	user time   =     106.67 seconds =       1.78 minutes
	system time =       2.85 seconds =       0.05 minutes
	total time  =        144 seconds =       2.40 minutes
	 --------------------------------------------------------
	                          DF-MP2                         
	      2nd-Order Density-Fitted Moller-Plesset Theory     
	              RMP2 Wavefunction,   1 Threads             
	                                                         
	        Rob Parrish, Justin Turney, Andy Simmonett,      
	           Ed Hohenstein, and C. David Sherrill          
	 --------------------------------------------------------

   => Auxiliary Basis Set <=

  Basis Set: 
    Number of shells: 410
    Number of basis function: 1350
    Number of Cartesian functions: 1640
    Spherical Harmonics?: true
    Max angular momentum: 4

	 --------------------------------------------------------
	                 NBF =   552, NAUX =  1350
	 --------------------------------------------------------
	   CLASS    FOCC     OCC    AOCC    AVIR     VIR    FVIR
	   PAIRS      10      41      31     511     511       0
	 --------------------------------------------------------

	-----------------------------------------------------------
	 ==================> DF-MP2 Energies <==================== 
	-----------------------------------------------------------
	 Reference Energy          =    -463.3016772141742194 [Eh]
	 Singles Energy            =      -0.0000000000003365 [Eh]
	 Same-Spin Energy          =      -0.4456870565541191 [Eh]
	 Opposite-Spin Energy      =      -1.4533193024080957 [Eh]
	 Correlation Energy        =      -1.8990063589625514 [Eh]
	 Total Energy              =    -465.2006835731367573 [Eh]
	-----------------------------------------------------------
	 ================> DF-SCS-MP2 Energies <================== 
	-----------------------------------------------------------
	 SCS Same-Spin Scale       =       0.3333333333333333 [-]
	 SCS Opposite-Spin Scale   =       1.2000000000000000 [-]
	 SCS Same-Spin Energy      =      -0.1485623521847064 [Eh]
	 SCS Opposite-Spin Energy  =      -1.7439831628897149 [Eh]
	 SCS Correlation Energy    =      -1.8925455150747579 [Eh]
	 SCS Total Energy          =    -465.1942227292489633 [Eh]
	-----------------------------------------------------------


*** Psi4 exiting successfully. Buy a developer a beer!
