    -----------------------------------------------------------------------
          Psi4: An Open-Source Ab Initio Electronic Structure Package
                              Psi4 1.0.24 Driver

                          Git: Rev {master} 45aac03 dirty

    J. M. Turney, A. C. Simmonett, R. M. Parrish, E. G. Hohenstein,
    F. A. Evangelista, J. T. Fermann, B. J. Mintz, L. A. Burns, J. J. Wilke,
    M. L. Abrams, N. J. Russ, M. L. Leininger, C. L. Janssen, E. T. Seidl,
    W. D. Allen, H. F. Schaefer, R. A. King, E. F. Valeev, C. D. Sherrill,
    and T. D. Crawford, WIREs Comput. Mol. Sci. 2, 556-565 (2012)
    (doi: 10.1002/wcms.93)

                         Additional Contributions by
    A. E. DePrince, U. Bozkaya, A. Yu. Sokolov, D. G. A. Smith, R. Di Remigio,
    R. M. Richard, J. F. Gonthier, H. R. McAlexander, M. Saitow, and
    B. P. Pritchard
    -----------------------------------------------------------------------


    Psi4 started on: Mon May  1 19:06:07 2017

    Process ID:  13918
    PSI4DATADIR: /home/limvt/local/miniconda2/share/psi4
    Memory level set to 256.000 MB

  ==> Input File <==

--------------------------------------------------------------------------
memory 5.0 Gb
molecule GBI_1 {
  1 1
  C     2.0470    -0.4963      0.6488
  C     0.6748    -0.3243      0.8484
  C     2.8822    -0.8969      1.7007
  C     0.0892    -0.5452      2.0997
  C     2.3110    -1.1219      2.9615
  C     0.9457    -0.9429      3.1273
  C     1.9263    -1.5790      5.0340
  C     3.1321    -2.2569      6.9973
  N     2.8988    -1.5128      4.1401
  N     0.7277    -1.2401      4.4470
  N     4.3112    -2.2914      6.3721
  N     3.0986    -2.5705      8.2978
  N     1.9876    -1.9205      6.3702
  H     2.4748    -0.3169     -0.3367
  H     0.0472    -0.0117      0.0138
  H     3.9483    -1.0299      1.5439
  H    -0.9774    -0.4121      2.2574
  H    -0.1618    -1.2153      4.9215
  H     5.1612    -2.5445      6.8523
  H     4.3455    -2.0543      5.3843
  H     3.9453    -2.8245      8.7867
  H     2.2325    -2.5593      8.8177
  H     1.1566    -1.9311      6.9488
  units angstrom
}

set basis def2-SV(P)
set df_basis_mp2 def2-SV(P)-ri
set freeze_core True
optimize('mp2')
--------------------------------------------------------------------------

  Memory set to   5.000 GiB by Python script.
gradient() will perform analytic gradient computation.
    SCF Algorithm Type (re)set to DF.

*** tstart() called on c-19-413.local
*** at Mon May  1 19:06:08 2017


         ---------------------------------------------------------
                                   SCF
            by Justin Turney, Rob Parrish, and Andy Simmonett
                              RHF Reference
                        1 Threads,   5000 MiB Core
         ---------------------------------------------------------

  ==> Geometry <==

    Molecular point group: c1
    Full point group: C1

    Geometry (in Angstrom), charge = 1, multiplicity = 1:

       Center              X                  Y                   Z               Mass       
    ------------   -----------------  -----------------  -----------------  -----------------
           C         -0.070168884241     0.903526415762    -3.561617069938    12.000000000000
           C         -1.442368884241     1.075526415762    -3.362017069938    12.000000000000
           C          0.765031115759     0.502926415762    -2.509717069938    12.000000000000
           C         -2.027968884241     0.854626415762    -2.110717069938    12.000000000000
           C          0.193831115759     0.277926415762    -1.248917069938    12.000000000000
           C         -1.171468884241     0.456926415762    -1.083117069938    12.000000000000
           C         -0.190868884241    -0.179173584238     0.823582930062    12.000000000000
           C          1.014931115759    -0.857073584238     2.786882930062    12.000000000000
           N          0.781631115759    -0.112973584238    -0.070317069938    14.003074004780
           N         -1.389468884241     0.159726415762     0.236582930062    14.003074004780
           N          2.194031115759    -0.891573584238     2.161682930062    14.003074004780
           N          0.981431115759    -1.170673584238     4.087382930062    14.003074004780
           N         -0.129568884241    -0.520673584238     2.159782930062    14.003074004780
           H          0.357631115759     1.082926415762    -4.547117069938     1.007825032070
           H         -2.069968884241     1.388126415762    -4.196617069938     1.007825032070
           H          1.831131115759     0.369926415762    -2.666517069938     1.007825032070
           H         -3.094568884241     0.987726415762    -1.953017069938     1.007825032070
           H         -2.278968884241     0.184526415762     0.711082930062     1.007825032070
           H          3.044031115759    -1.144673584238     2.641882930062     1.007825032070
           H          2.228331115759    -0.654473584238     1.173882930062     1.007825032070
           H          1.828131115759    -1.424673584238     4.576282930062     1.007825032070
           H          0.115331115759    -1.159473584238     4.607282930062     1.007825032070
           H         -0.960568884241    -0.531273584238     2.738382930062     1.007825032070

  Running in c1 symmetry.

  Rotational constants: A =      0.09206  B =      0.01400  C =      0.01216 [cm^-1]
  Rotational constants: A =   2759.77894  B =    419.83970  C =    364.40494 [MHz]
  Nuclear repulsion =  757.846263108881544

  Charge       = 1
  Multiplicity = 1
  Electrons    = 92
  Nalpha       = 46
  Nbeta        = 46

  ==> Algorithm <==

  SCF Algorithm Type is DF.
  DIIS enabled.
  MOM disabled.
  Fractional occupation disabled.
  Guess Type is SAD.
  Energy threshold   = 1.00e-10
  Density threshold  = 1.00e-10
  Integral threshold = 0.00e+00

  ==> Primary Basis <==

  Basis Set: DEF2-SV(P)
    Number of shells: 98
    Number of basis function: 202
    Number of Cartesian functions: 215
    Spherical Harmonics?: true
    Max angular momentum: 2

  ==> Pre-Iterations <==

   -------------------------------------------------------
    Irrep   Nso     Nmo     Nalpha   Nbeta   Ndocc  Nsocc
   -------------------------------------------------------
     A        202     202       0       0       0       0
   -------------------------------------------------------
    Total     202     202      46      46      46       0
   -------------------------------------------------------

  ==> Integral Setup <==

  ==> DFJK: Density-Fitted J/K Matrices <==

    J tasked:                  Yes
    K tasked:                  Yes
    wK tasked:                  No
    OpenMP threads:              1
    Integrals threads:           1
    Memory (MB):              3576
    Algorithm:                Core
    Integral Cache:           NONE
    Schwarz Cutoff:          1E-12
    Fitting Condition:       1E-12

   => Auxiliary Basis Set <=

  Basis Set: 
    Number of shells: 385
    Number of basis function: 1165
    Number of Cartesian functions: 1377
    Spherical Harmonics?: true
    Max angular momentum: 4

  Minimum eigenvalue in the overlap matrix is 2.4014930455E-04.
  Using Symmetric Orthogonalization.
  SCF Guess: Superposition of Atomic Densities via on-the-fly atomic UHF.

  ==> Iterations <==

                           Total Energy        Delta E     RMS |[F,P]|

   @DF-RHF iter   0:  -585.38335025154095   -5.85383e+02   3.74523e-02 
   @DF-RHF iter   1:  -580.12241235182762    5.26094e+00   2.87086e-03 
   @DF-RHF iter   2:  -580.32194268054684   -1.99530e-01   1.51433e-03 DIIS
   @DF-RHF iter   3:  -580.36404627257423   -4.21036e-02   4.75212e-04 DIIS
   @DF-RHF iter   4:  -580.37141622045795   -7.36995e-03   1.57085e-04 DIIS
   @DF-RHF iter   5:  -580.37226088137652   -8.44661e-04   6.22473e-05 DIIS
   @DF-RHF iter   6:  -580.37248934838260   -2.28467e-04   2.47360e-05 DIIS
   @DF-RHF iter   7:  -580.37252805865944   -3.87103e-05   1.04224e-05 DIIS
   @DF-RHF iter   8:  -580.37253626809195   -8.20943e-06   4.14515e-06 DIIS
   @DF-RHF iter   9:  -580.37253822109858   -1.95301e-06   1.74364e-06 DIIS
   @DF-RHF iter  10:  -580.37253859290456   -3.71806e-07   5.97645e-07 DIIS
   @DF-RHF iter  11:  -580.37253862512318   -3.22186e-08   2.35214e-07 DIIS
   @DF-RHF iter  12:  -580.37253862996374   -4.84056e-09   1.10400e-07 DIIS
   @DF-RHF iter  13:  -580.37253863088915   -9.25411e-10   3.85996e-08 DIIS
   @DF-RHF iter  14:  -580.37253863101898   -1.29830e-10   1.49183e-08 DIIS
   @DF-RHF iter  15:  -580.37253863103626   -1.72804e-11   7.37656e-09 DIIS
   @DF-RHF iter  16:  -580.37253863104195   -5.68434e-12   2.90605e-09 DIIS
   @DF-RHF iter  17:  -580.37253863104263   -6.82121e-13   1.22774e-09 DIIS
   @DF-RHF iter  18:  -580.37253863104331   -6.82121e-13   6.47826e-10 DIIS
   @DF-RHF iter  19:  -580.37253863104263    6.82121e-13   2.12821e-10 DIIS
   @DF-RHF iter  20:  -580.37253863104308   -4.54747e-13   9.73637e-11 DIIS

  ==> Post-Iterations <==

    Orbital Energies (a.u.)
    -----------------------

    Doubly Occupied:                                                      

       1A    -15.821999     2A    -15.791876     3A    -15.773048  
       4A    -15.755337     5A    -15.694199     6A    -11.610977  
       7A    -11.519658     8A    -11.390307     9A    -11.373460  
      10A    -11.345980    11A    -11.341217    12A    -11.338136  
      13A    -11.331290    14A     -1.551444    15A     -1.486804  
      16A     -1.408306    17A     -1.375761    18A     -1.309053  
      19A     -1.238738    20A     -1.136664    21A     -1.106279  
      22A     -1.068024    23A     -1.013857    24A     -0.995221  
      25A     -0.967477    26A     -0.930612    27A     -0.924046  
      28A     -0.881720    29A     -0.870560    30A     -0.855840  
      31A     -0.834881    32A     -0.827688    33A     -0.798193  
      34A     -0.758007    35A     -0.733153    36A     -0.721737  
      37A     -0.709969    38A     -0.660102    39A     -0.629929  
      40A     -0.625129    41A     -0.616240    42A     -0.581503  
      43A     -0.579850    44A     -0.560748    45A     -0.424170  
      46A     -0.418170  

    Virtual:                                                              

      47A     -0.029794    48A     -0.019068    49A      0.019431  
      50A      0.030427    51A      0.042545    52A      0.055719  
      53A      0.073567    54A      0.091251    55A      0.106337  
      56A      0.111649    57A      0.131301    58A      0.152851  
      59A      0.168311    60A      0.174790    61A      0.193900  
      62A      0.218341    63A      0.252682    64A      0.267626  
      65A      0.292735    66A      0.306622    67A      0.328684  
      68A      0.330592    69A      0.352320    70A      0.354564  
      71A      0.374740    72A      0.377993    73A      0.393987  
      74A      0.443994    75A      0.450596    76A      0.481776  
      77A      0.491193    78A      0.508179    79A      0.523295  
      80A      0.556040    81A      0.567820    82A      0.567993  
      83A      0.581422    84A      0.588134    85A      0.590022  
      86A      0.593196    87A      0.605715    88A      0.615494  
      89A      0.647223    90A      0.656661    91A      0.684500  
      92A      0.696373    93A      0.744156    94A      0.749110  
      95A      0.767928    96A      0.791559    97A      0.807035  
      98A      0.812875    99A      0.826391   100A      0.834570  
     101A      0.835048   102A      0.847135   103A      0.850820  
     104A      0.860823   105A      0.872415   106A      0.879027  
     107A      0.888160   108A      0.903914   109A      0.919428  
     110A      0.935061   111A      0.942910   112A      0.951981  
     113A      0.963557   114A      0.966592   115A      0.984655  
     116A      1.002810   117A      1.022088   118A      1.029258  
     119A      1.044940   120A      1.089683   121A      1.106207  
     122A      1.147795   123A      1.183651   124A      1.216144  
     125A      1.232696   126A      1.271998   127A      1.306070  
     128A      1.335749   129A      1.366180   130A      1.376204  
     131A      1.392734   132A      1.405101   133A      1.436351  
     134A      1.444221   135A      1.485804   136A      1.496517  
     137A      1.531808   138A      1.542076   139A      1.552836  
     140A      1.557912   141A      1.598638   142A      1.617753  
     143A      1.649988   144A      1.662631   145A      1.669551  
     146A      1.673897   147A      1.721021   148A      1.915993  
     149A      1.959626   150A      1.980777   151A      2.055638  
     152A      2.063983   153A      2.106181   154A      2.132300  
     155A      2.170669   156A      2.171847   157A      2.187922  
     158A      2.189997   159A      2.216513   160A      2.231419  
     161A      2.246530   162A      2.260717   163A      2.261968  
     164A      2.307059   165A      2.321284   166A      2.376035  
     167A      2.389461   168A      2.424904   169A      2.459775  
     170A      2.486817   171A      2.506206   172A      2.514174  
     173A      2.612503   174A      2.624423   175A      2.658989  
     176A      2.673065   177A      2.694985   178A      2.707503  
     179A      2.711859   180A      2.725994   181A      2.783971  
     182A      2.808233   183A      2.820457   184A      2.882112  
     185A      2.896685   186A      2.922574   187A      2.931339  
     188A      2.983681   189A      2.986232   190A      3.014534  
     191A      3.041066   192A      3.065422   193A      3.095559  
     194A      3.108217   195A      3.199386   196A      3.308639  
     197A      3.362425   198A      3.397931   199A      3.525480  
     200A      3.586905   201A      3.650980   202A      3.826578  

    Final Occupation by Irrep:
              A 
    DOCC [    46 ]

  Energy converged.

  @DF-RHF Final Energy:  -580.37253863104308

   => Energetics <=

    Nuclear Repulsion Energy =            757.8462631088815442
    One-Electron Energy =               -2277.0628833028458757
    Two-Electron Energy =                 938.8440815629212466
    DFT Exchange-Correlation Energy =       0.0000000000000000
    Empirical Dispersion Energy =           0.0000000000000000
    PCM Polarization Energy =               0.0000000000000000
    EFP Energy =                            0.0000000000000000
    Total Energy =                       -580.3725386310431986


  Saving occupied orbitals to File 180.

*** tstop() called on c-19-413.local at Mon May  1 19:06:31 2017
Module time:
	user time   =      17.77 seconds =       0.30 minutes
	system time =       0.89 seconds =       0.01 minutes
	total time  =         23 seconds =       0.38 minutes
Total time:
	user time   =      17.77 seconds =       0.30 minutes
	system time =       0.89 seconds =       0.01 minutes
	total time  =         23 seconds =       0.38 minutes


Properties will be evaluated at   0.000000,   0.000000,   0.000000 Bohr

Properties computed using the SCF density matrix

  Nuclear Dipole Moment: (a.u.)
     X:     0.9309      Y:    -0.8376      Z:     2.8677

  Electronic Dipole Moment: (a.u.)
     X:    -0.5564      Y:    -0.4361      Z:     2.0330

  Dipole Moment: (a.u.)
     X:     0.3744      Y:    -1.2738      Z:     4.9007     Total:     5.0774

  Dipole Moment: (Debye)
     X:     0.9517      Y:    -3.2376      Z:    12.4564     Total:    12.9054


  //>>>>>>>>>>>>>>>>>>>>>>>>>>>>>>>>>>>//
  //               DFMP2               //
  //<<<<<<<<<<<<<<<<<<<<<<<<<<<<<<<<<<<//


*** tstart() called on c-19-413.local
*** at Mon May  1 19:06:31 2017


*** tstop() called on c-19-413.local at Mon May  1 19:06:31 2017
Module time:
	user time   =       0.38 seconds =       0.01 minutes
	system time =       0.00 seconds =       0.00 minutes
	total time  =          0 seconds =       0.00 minutes
Total time:
	user time   =      18.18 seconds =       0.30 minutes
	system time =       0.89 seconds =       0.01 minutes
	total time  =         23 seconds =       0.38 minutes
	 --------------------------------------------------------
	                          DF-MP2                         
	      2nd-Order Density-Fitted Moller-Plesset Theory     
	              RMP2 Wavefunction,   1 Threads             
	                                                         
	        Rob Parrish, Justin Turney, Andy Simmonett,      
	           Ed Hohenstein, and C. David Sherrill          
	 --------------------------------------------------------

   => Auxiliary Basis Set <=

  Basis Set: DEF2-SV(P)-RI
    Number of shells: 268
    Number of basis function: 764
    Number of Cartesian functions: 865
    Spherical Harmonics?: true
    Max angular momentum: 3

	 --------------------------------------------------------
	                 NBF =   202, NAUX =   764
	 --------------------------------------------------------
	   CLASS    FOCC     OCC    AOCC    AVIR     VIR    FVIR
	   PAIRS      13      46      33     156     156       0
	 --------------------------------------------------------

DGAS Warning! /src/lib/libfock/apps.cc:80 is not currently checking restricted

         ------------------------------------------------------------
                                     CPHF                           
                                  Rob Parrish                       
         ------------------------------------------------------------

  ==> Geometry <==

    Molecular point group: c1
    Full point group: C1

    Geometry (in Angstrom), charge = 1, multiplicity = 1:

       Center              X                  Y                   Z               Mass       
    ------------   -----------------  -----------------  -----------------  -----------------
           C         -0.070168884241     0.903526415762    -3.561617069938    12.000000000000
           C         -1.442368884241     1.075526415762    -3.362017069938    12.000000000000
           C          0.765031115759     0.502926415762    -2.509717069938    12.000000000000
           C         -2.027968884241     0.854626415762    -2.110717069938    12.000000000000
           C          0.193831115759     0.277926415762    -1.248917069938    12.000000000000
           C         -1.171468884241     0.456926415762    -1.083117069938    12.000000000000
           C         -0.190868884241    -0.179173584238     0.823582930062    12.000000000000
           C          1.014931115759    -0.857073584238     2.786882930062    12.000000000000
           N          0.781631115759    -0.112973584238    -0.070317069938    14.003074004780
           N         -1.389468884241     0.159726415762     0.236582930062    14.003074004780
           N          2.194031115759    -0.891573584238     2.161682930062    14.003074004780
           N          0.981431115759    -1.170673584238     4.087382930062    14.003074004780
           N         -0.129568884241    -0.520673584238     2.159782930062    14.003074004780
           H          0.357631115759     1.082926415762    -4.547117069938     1.007825032070
           H         -2.069968884241     1.388126415762    -4.196617069938     1.007825032070
           H          1.831131115759     0.369926415762    -2.666517069938     1.007825032070
           H         -3.094568884241     0.987726415762    -1.953017069938     1.007825032070
           H         -2.278968884241     0.184526415762     0.711082930062     1.007825032070
           H          3.044031115759    -1.144673584238     2.641882930062     1.007825032070
           H          2.228331115759    -0.654473584238     1.173882930062     1.007825032070
           H          1.828131115759    -1.424673584238     4.576282930062     1.007825032070
           H          0.115331115759    -1.159473584238     4.607282930062     1.007825032070
           H         -0.960568884241    -0.531273584238     2.738382930062     1.007825032070

  Nuclear repulsion =  757.846263108881544
  Reference energy  = -580.372538631043085

  ==> Basis Set <==

  Basis Set: DEF2-SV(P)
    Number of shells: 98
    Number of basis function: 202
    Number of Cartesian functions: 215
    Spherical Harmonics?: true
    Max angular momentum: 2

  ==> CGRSolver (by Rob Parrish) <==

   Number of roots    =         1
   Preconditioning    =    JACOBI
   Convergence cutoff =     1E-06
   Maximum iterations =       100

  ==> CPHFRHamiltonian (by Rob Parrish) <== 

  ==> DFJK: Density-Fitted J/K Matrices <==

    J tasked:                  Yes
    K tasked:                  Yes
    wK tasked:                  No
    OpenMP threads:              1
    Integrals threads:           1
    Memory (MB):              3576
    Algorithm:                Core
    Integral Cache:           NONE
    Schwarz Cutoff:          1E-12
    Fitting Condition:       1E-12

   => Auxiliary Basis Set <=

  Basis Set: 
    Number of shells: 385
    Number of basis function: 1165
    Number of Cartesian functions: 1377
    Spherical Harmonics?: true
    Max angular momentum: 4

  ==> CPHF Iterations <==

  => Iterations <=

             Iter  Converged  Remaining    Residual
  CGR           1          0          1   1.267E-01
  CGR           2          0          1   3.921E-02
  CGR           3          0          1   2.014E-02
  CGR           4          0          1   6.166E-03
  CGR           5          0          1   3.419E-03
  CGR           6          0          1   1.250E-03
  CGR           7          0          1   4.727E-04
  CGR           8          0          1   1.615E-04
  CGR           9          0          1   5.668E-05
  CGR          10          0          1   2.236E-05
  CGR          11          0          1   5.838E-06
  CGR          12          0          1   2.021E-06
  CGR          13          1          0   9.566E-07

    CGRSolver converged.

  ==> DFCorrGrad: Density-Fitted Correlated Gradients <==

    OpenMP threads:              1
    Integrals threads:           1
    Memory (MB):              3576
    Schwarz Cutoff:          0E+00
    Fitting Condition:       1E-12

   => Auxiliary Basis Set <=

  Basis Set: 
    Number of shells: 385
    Number of basis function: 1165
    Number of Cartesian functions: 1377
    Spherical Harmonics?: true
    Max angular momentum: 4

	-----------------------------------------------------------
	 ==================> DF-MP2 Energies <==================== 
	-----------------------------------------------------------
	 Reference Energy          =    -580.3725386310430849 [Eh]
	 Singles Energy            =      -0.0000000000000001 [Eh]
	 Same-Spin Energy          =      -0.4866999144924263 [Eh]
	 Opposite-Spin Energy      =      -1.2896835348614606 [Eh]
	 Correlation Energy        =      -1.7763834493538870 [Eh]
	 Total Energy              =    -582.1489220803970284 [Eh]
	-----------------------------------------------------------
	 ================> DF-SCS-MP2 Energies <================== 
	-----------------------------------------------------------
	 SCS Same-Spin Scale       =       0.3333333333333333 [-]
	 SCS Opposite-Spin Scale   =       1.2000000000000000 [-]
	 SCS Same-Spin Energy      =      -0.1622333048308087 [Eh]
	 SCS Opposite-Spin Energy  =      -1.5476202418337526 [Eh]
	 SCS Correlation Energy    =      -1.7098535466645615 [Eh]
	 SCS Total Energy          =    -582.0823921777076748 [Eh]
	-----------------------------------------------------------


  -Total Gradient:
     Atom            X                  Y                   Z
    ------   -----------------  -----------------  -----------------
       1       -0.016030696005     0.005256086904    -0.010525319598
       2        0.013596021614     0.000003468380    -0.008756928324
       3        0.000043729662    -0.002353843602     0.009290423643
       4       -0.001078672225    -0.001758139865     0.007754006187
       5       -0.018106005858    -0.000070158341     0.012037277702
       6        0.014507298198    -0.001214741249    -0.004120707631
       7        0.019460293073    -0.016577592338     0.054689332923
       8       -0.026757510693     0.005191270345    -0.003916975467
       9       -0.015707776927     0.008864961446    -0.026049118423
      10        0.006153460204     0.005442794251    -0.026490159361
      11        0.020570507177    -0.002617744188    -0.002607965573
      12        0.008970210934    -0.002183838186     0.003211031748
      13       -0.019390819880     0.006574964111    -0.013747226477
      14       -0.002123466112    -0.000574069033     0.003659982584
      15        0.003015018401    -0.001151403694     0.002668759526
      16       -0.006680519618     0.000962008149     0.000471289174
      17        0.006057049403    -0.000827828053    -0.000586109614
      18        0.009109576613    -0.001146276261    -0.001397691763
      19       -0.004672225638     0.002093090235    -0.005531722988
      20        0.002364908446    -0.004191203013     0.015416002780
      21       -0.003499115667     0.001548175952    -0.003955734094
      22        0.002892674798     0.000804154772    -0.005202161859
      23        0.007306060097    -0.002074136717     0.003689714904


			-----------------------------------------
			 OPTKING 2.0: for geometry optimizations 
			  - R.A. King,  Bethel University        
			-----------------------------------------

	Internal coordinates to be generated automatically.
	Detected frag 1 with atoms:  1 2 3 4 5 6 7 8 9 10 11 12 13 14 15 16 17 18 19 20
	 21 22 23
	---Fragment 1 Bond Connectivity---
	 1 : 2 3 14
	 2 : 1 4 15
	 3 : 1 5 16
	 4 : 2 6 17
	 5 : 3 6 9
	 6 : 4 5 10
	 7 : 9 10 13
	 8 : 11 12 13
	 9 : 5 7
	 10 : 6 7 18
	 11 : 8 19 20
	 12 : 8 21 22
	 13 : 7 8 23
	 14 : 1
	 15 : 2
	 16 : 3
	 17 : 4
	 18 : 10
	 19 : 11
	 20 : 11
	 21 : 12
	 22 : 12
	 23 : 13

	---Fragment 1 Geometry and Gradient---
	 C          -0.1325999743        1.7074174796       -6.7304808524
	 C          -2.7256821738        2.0324503745       -6.3532915163
	 C           1.4456992919        0.9503931908       -4.7426779332
	 C          -3.8323057972        1.6150098717       -3.9886772062
	 C           0.3662877248        0.5252048109       -2.3601112249
	 C          -2.2137553644        0.8634657887       -2.0467946320
	 C          -0.3606899185       -0.3385890045        1.5563461855
	 C           1.9179418525       -1.6196343499        5.2664455022
	 N           1.4770687457       -0.2134891345       -0.1328800047
	 N          -2.6257156614        0.3018391820        0.4470769455
	 N           4.1461179358       -1.6848299015        4.0849887240
	 N           1.8546360271       -2.2122524652        7.7240343380
	 N          -0.2448497066       -0.9839304788        4.0813982443
	 H           0.6758248654        2.0464343479       -8.5928059564
	 H          -3.9116742948        2.6231787636       -7.9304569468
	 H           3.4603363222        0.6990596151       -5.0389869908
	 H          -5.8478876906        1.8665324200       -3.6906673950
	 H          -4.3066270566        0.3487043901        1.3437519956
	 H           5.7523851488       -2.1631195858        4.9924352130
	 H           4.2109355422       -1.2367758354        2.2183172499
	 H           3.4546671438       -2.6922429030        8.6479214444
	 H           0.2179442234       -2.1910875325        8.7065029545
	 H          -1.8152121230       -1.0039615758        5.1747937848
	            -0.0160306960        0.0052560869       -0.0105253196
	             0.0135960216        0.0000034684       -0.0087569283
	             0.0000437297       -0.0023538436        0.0092904236
	            -0.0010786722       -0.0017581399        0.0077540062
	            -0.0181060059       -0.0000701583        0.0120372777
	             0.0145072982       -0.0012147412       -0.0041207076
	             0.0194602931       -0.0165775923        0.0546893329
	            -0.0267575107        0.0051912703       -0.0039169755
	            -0.0157077769        0.0088649614       -0.0260491184
	             0.0061534602        0.0054427943       -0.0264901594
	             0.0205705072       -0.0026177442       -0.0026079656
	             0.0089702109       -0.0021838382        0.0032110317
	            -0.0193908199        0.0065749641       -0.0137472265
	            -0.0021234661       -0.0005740690        0.0036599826
	             0.0030150184       -0.0011514037        0.0026687595
	            -0.0066805196        0.0009620081        0.0004712892
	             0.0060570494       -0.0008278281       -0.0005861096
	             0.0091095766       -0.0011462763       -0.0013976918
	            -0.0046722256        0.0020930902       -0.0055317230
	             0.0023649084       -0.0041912030        0.0154160028
	            -0.0034991157        0.0015481760       -0.0039557341
	             0.0028926748        0.0008041548       -0.0052021619
	             0.0073060601       -0.0020741367        0.0036897149

	Previous optimization step data not found.  Starting new optimization.

	---Fragment 1 Intrafragment Coordinates---
	 - Coordinate -           - BOHR/RAD -       - ANG/DEG -
	 H(9,20)          =         3.748236	       1.983481
	 R(1,2)           =         2.640453	       1.397268
	 R(1,3)           =         2.648674	       1.401618
	 R(1,14)          =         2.058334	       1.089223
	 R(2,4)           =         2.643912	       1.399098
	 R(2,15)          =         2.059851	       1.090026
	 R(3,5)           =         2.650007	       1.402323
	 R(3,16)          =         2.051763	       1.085746
	 R(4,6)           =         2.637315	       1.395607
	 R(4,17)          =         2.052960	       1.086380
	 R(5,6)           =         2.620918	       1.386930
	 R(5,9)           =         2.596163	       1.373830
	 R(6,10)          =         2.589311	       1.370204
	 R(7,9)           =         2.499298	       1.322572
	 R(7,10)          =         2.602108	       1.376976
	 R(7,13)          =         2.608788	       1.380511
	 R(8,11)          =         2.522867	       1.335044
	 R(8,12)          =         2.528823	       1.338196
	 R(8,13)          =         2.546787	       1.347702
	 R(10,18)         =         1.905698	       1.008452
	 R(11,19)         =         1.905863	       1.008539
	 R(11,20)         =         1.920785	       1.016436
	 R(12,21)         =         1.908942	       1.010168
	 R(12,22)         =         1.909045	       1.010223
	 R(13,23)         =         1.913623	       1.012646
	 B(1,2,4)         =         2.116910	     121.290034
	 B(1,2,15)        =         2.084450	     119.430166
	 B(1,3,5)         =         2.069048	     118.547721
	 B(1,3,16)        =         2.107991	     120.779014
	 B(2,1,3)         =         2.109668	     120.875044
	 B(2,1,14)        =         2.088266	     119.648850
	 B(2,4,6)         =         2.033812	     116.528836
	 B(2,4,17)        =         2.119307	     121.427373
	 B(3,1,14)        =         2.085251	     119.476105
	 B(3,5,6)         =         2.080300	     119.192401
	 B(3,5,9)         =         2.268802	     129.992807
	 B(4,2,15)        =         2.081825	     119.279799
	 B(4,6,5)         =         2.156633	     123.565954
	 B(4,6,10)        =         2.309512	     132.325265
	 B(5,3,16)        =         2.106146	     120.673259
	 B(5,6,10)        =         1.817041	     104.108778
	 B(5,9,7)         =         1.854038	     106.228532
	 B(6,4,17)        =         2.130066	     122.043786
	 B(6,5,9)         =         1.934083	     110.814781
	 B(6,10,7)        =         1.902312	     108.994476
	 B(6,10,18)       =         2.199602	     126.027939
	 B(7,10,18)       =         2.181267	     124.977398
	 B(7,13,8)        =         2.152958	     123.355408
	 B(7,13,23)       =         2.116694	     121.277631
	 B(8,11,19)       =         2.126886	     121.861570
	 B(8,11,20)       =         2.070177	     118.612380
	 B(8,12,21)       =         2.103991	     120.549824
	 B(8,12,22)       =         2.116484	     121.265609
	 B(8,13,23)       =         2.013532	     115.366861
	 B(9,7,10)        =         1.917300	     109.853223
	 B(9,7,13)        =         2.257404	     129.339745
	 B(10,7,13)       =         2.108480	     120.807010
	 B(11,8,12)       =         2.061403	     118.109710
	 B(11,8,13)       =         2.139539	     122.586562
	 B(12,8,13)       =         2.082243	     119.303726
	 B(19,11,20)      =         2.086123	     119.526046
	 B(21,12,22)      =         2.062709	     118.184501
	 D(1,2,4,6)       =         0.000342	       0.019579
	 D(1,2,4,17)      =         3.141541	     179.997041
	 D(1,3,5,6)       =         0.000625	       0.035830
	 D(1,3,5,9)       =        -3.140249	    -179.923010
	 D(2,1,3,5)       =        -0.000314	      -0.017997
	 D(2,1,3,16)      =        -3.141391	    -179.988441
	 D(2,4,6,5)       =        -0.000000	      -0.000000
	 D(2,4,6,10)      =         3.141213	     179.978236
	 D(3,1,2,4)       =        -0.000180	      -0.010331
	 D(3,1,2,15)      =         3.141152	     179.974736
	 D(3,5,6,4)       =        -0.000475	      -0.027208
	 D(3,5,6,10)      =         3.141397	     179.988777
	 D(3,5,9,7)       =         3.140106	     179.914836
	 D(4,2,1,14)      =         3.141593	     180.000000
	 D(4,6,5,9)       =         3.140529	     179.939056
	 D(4,6,10,7)      =        -3.139229	    -179.864560
	 D(4,6,10,18)     =        -0.000275	      -0.015767
	 D(5,3,1,14)      =         3.141089	     179.971142
	 D(5,6,4,17)      =        -3.141211	    -179.978106
	 D(5,6,10,7)      =         0.002049	       0.117424
	 D(5,6,10,18)     =         3.141003	     179.966216
	 D(5,9,7,10)      =         0.002115	       0.121196
	 D(5,9,7,13)      =        -3.138517	    -179.823771
	 D(6,4,2,15)      =        -3.140991	    -179.965509
	 D(6,5,3,16)      =        -3.141483	    -179.993693
	 D(6,5,9,7)       =        -0.000815	      -0.046722
	 D(6,10,7,9)      =        -0.002702	      -0.154800
	 D(6,10,7,13)     =         3.138026	     179.795645
	 D(7,13,8,11)     =        -0.003092	      -0.177184
	 D(7,13,8,12)     =         3.138247	     179.808323
	 D(8,13,7,9)      =         0.002126	       0.121823
	 D(8,13,7,10)     =        -3.138415	    -179.817910
	 D(9,5,3,16)      =         0.000828	       0.047467
	 D(9,5,6,10)      =        -0.000785	      -0.044958
	 D(9,7,10,18)     =         3.141496	     179.994443
	 D(9,7,13,23)     =        -3.141578	    -179.999138
	 D(10,6,4,17)     =         0.000016	       0.000925
	 D(10,7,13,23)    =         0.001067	       0.061129
	 D(11,8,12,21)    =         0.000854	       0.048908
	 D(11,8,12,22)    =         3.140775	     179.953162
	 D(11,8,13,23)    =         3.140497	     179.937228
	 D(12,8,11,19)    =        -0.000074	      -0.004222
	 D(12,8,11,20)    =        -3.141254	    -179.980623
	 D(12,8,13,23)    =        -0.001349	      -0.077265
	 D(13,7,10,18)    =        -0.000962	      -0.055112
	 D(13,8,11,19)    =         3.141269	     179.981450
	 D(13,8,11,20)    =         0.000088	       0.005049
	 D(13,8,12,21)    =        -3.140497	    -179.937248
	 D(13,8,12,22)    =        -0.000576	      -0.032994
	 D(14,1,2,15)     =        -0.000251	      -0.014384
	 D(14,1,3,16)     =         0.000000	       0.000000
	 D(15,2,4,17)     =         0.000209	       0.011952
	 R(9,11)          =         5.203757	       2.753709

	Current energy   :      -582.1489220804

	Generating empirical Hessian (Schlegel '84) for each fragment.
	Taking RFO optimization step.
	Going to follow RFO solution 1.
	Using RFO vector 1.
	Norm of target step-size    0.23450
	Projected energy change by RFO approximation:        -0.0129084358

	Back-transformation to cartesian coordinates...
	Could not converge backtransformation.
	Using first guess instead.

	--- Internal Coordinate Step in ANG or DEG, aJ/ANG or AJ/DEG ---
	 ---------------------------------------------------------------------------
	   Coordinate                Previous        Force       Change         New 
	   ----------                --------       ------       ------       ------
	    1 H(9,20)         =      1.983481    -0.049732    -0.044007     1.939474
	    2 R(1,2)          =      1.397268     0.159626     0.020394     1.417662
	    3 R(1,3)          =      1.401618    -0.056356    -0.008443     1.393175
	    4 R(1,14)         =      1.089223     0.034932     0.006183     1.095406
	    5 R(2,4)          =      1.399098    -0.022051    -0.003306     1.395793
	    6 R(2,15)         =      1.090026     0.033857     0.006029     1.096056
	    7 R(3,5)          =      1.402323     0.023438     0.003863     1.406186
	    8 R(3,16)         =      1.085746     0.055575     0.009740     1.095486
	    9 R(4,6)          =      1.395607     0.035193     0.005552     1.401159
	   10 R(4,17)         =      1.086380     0.050530     0.008967     1.095347
	   11 R(5,6)          =      1.386930     0.224884     0.033055     1.419985
	   12 R(5,9)          =      1.373830     0.034386     0.004470     1.378301
	   13 R(6,10)         =      1.370204     0.082055     0.011503     1.381707
	   14 R(7,9)          =      1.322572    -0.055238    -0.006112     1.316460
	   15 R(7,10)         =      1.376976    -0.032473    -0.004383     1.372594
	   16 R(7,13)         =      1.380511     0.151479     0.020458     1.400969
	   17 R(8,11)         =      1.335044    -0.087994    -0.009708     1.325336
	   18 R(8,12)         =      1.338196     0.049665     0.005876     1.344072
	   19 R(8,13)         =      1.347702     0.061396     0.006567     1.354268
	   20 R(10,18)        =      1.008452     0.071849     0.009695     1.018147
	   21 R(11,19)        =      1.008539     0.058469     0.007900     1.016439
	   22 R(11,20)        =      1.016436     0.098567     0.015531     1.031967
	   23 R(12,21)        =      1.010168     0.043143     0.006235     1.016403
	   24 R(12,22)        =      1.010223     0.042416     0.005807     1.016030
	   25 R(13,23)        =      1.012646     0.031848     0.004696     1.017342
	   26 B(1,2,4)        =    121.290034     0.000280     0.692729   121.982763
	   27 B(1,2,15)       =    119.430166    -0.000077    -0.071882   119.358284
	   28 B(1,3,5)        =    118.547721    -0.000455    -1.364712   117.183009
	   29 B(1,3,16)       =    120.779014     0.000268     0.859553   121.638567
	   30 B(2,1,3)        =    120.875044     0.000346     0.839173   121.714218
	   31 B(2,1,14)       =    119.648850    -0.000134    -0.244525   119.404325
	   32 B(2,4,6)        =    116.528836    -0.000234    -0.538135   115.990701
	   33 B(2,4,17)       =    121.427373     0.000092     0.169217   121.596590
	   34 B(3,1,14)       =    119.476105    -0.000213    -0.594648   118.881457
	   35 B(3,5,6)        =    119.192401     0.000379     1.210111   120.402513
	   36 B(3,5,9)        =    129.992807     0.000003    -0.564181   129.428626
	   37 B(4,2,15)       =    119.279799    -0.000203    -0.620847   118.658952
	   38 B(4,6,5)        =    123.565954    -0.000316    -0.839159   122.726795
	   39 B(4,6,10)       =    132.325265     0.000094    -0.455488   131.869777
	   40 B(5,3,16)       =    120.673259     0.000187     0.505165   121.178424
	   41 B(5,6,10)       =    104.108778     0.000222     1.294641   105.403419
	   42 B(5,9,7)        =    106.228532    -0.000547    -1.937939   104.290594
	   43 B(6,4,17)       =    122.043786     0.000142     0.368921   122.412708
	   44 B(6,5,9)        =    110.814781    -0.000382    -0.645922   110.168859
	   45 B(6,10,7)       =    108.994476    -0.001114    -3.414775   105.579701
	   46 B(6,10,18)      =    126.027939     0.000325     0.699012   126.726951
	   47 B(7,10,18)      =    124.977398     0.000788     2.715949   127.693348
	   48 B(7,13,8)       =    123.355408     0.000883     2.437448   125.792855
	   49 B(7,13,23)      =    121.277631    -0.000988    -3.563075   117.714556
	   50 B(8,11,19)      =    121.861570    -0.000326    -1.044173   120.817397
	   51 B(8,11,20)      =    118.612380     0.000284     0.493163   119.105543
	   52 B(8,12,21)      =    120.549824     0.000014     0.058295   120.608118
	   53 B(8,12,22)      =    121.265609     0.000218     0.938962   122.204571
	   54 B(8,13,23)      =    115.366861     0.000105     1.125708   116.492568
	   55 B(9,7,10)       =    109.853223     0.001820     4.704173   114.557397
	   56 B(9,7,13)       =    129.339745    -0.001568    -4.265325   125.074420
	   57 B(10,7,13)      =    120.807010    -0.000252    -0.438853   120.368157
	   58 B(11,8,12)      =    118.109710     0.000895     2.819316   120.929026
	   59 B(11,8,13)      =    122.586562    -0.000396    -1.661101   120.925461
	   60 B(12,8,13)      =    119.303726    -0.000500    -1.158217   118.145509
	   61 B(19,11,20)     =    119.526046     0.000042     0.550987   120.077033
	   62 B(21,12,22)     =    118.184501    -0.000232    -0.997226   117.187274
	   63 D(1,2,4,6)      =      0.019579    -0.000000    -0.016382     0.003198
	   64 D(1,2,4,17)     =    179.997041    -0.000000    -0.005537   179.991503
	   65 D(1,3,5,6)      =      0.035830    -0.000000    -0.022250     0.013580
	   66 D(1,3,5,9)      =   -179.923010    -0.000000    -0.045731  -179.968740
	   67 D(2,1,3,5)      =     -0.017997     0.000000     0.013475    -0.004522
	   68 D(2,1,3,16)     =   -179.988441    -0.000000    -0.011559  -180.000000
	   69 D(2,4,6,5)      =      0.000000     0.000000     0.006195     0.006195
	   70 D(2,4,6,10)     =    179.978236    -0.000000    -0.010263   179.967973
	   71 D(3,1,2,4)      =     -0.010331     0.000000     0.006291    -0.004040
	   72 D(3,1,2,15)     =    179.974736     0.000000     0.007282   179.982018
	   73 D(3,5,6,4)      =     -0.027208     0.000000     0.012183    -0.015025
	   74 D(3,5,6,10)     =    179.988777     0.000000     0.025721   180.014498
	   75 D(3,5,9,7)      =    179.914836     0.000001     0.101354   180.016190
	   76 D(4,2,1,14)     =    180.000000     0.000000     0.001546   180.001546
	   77 D(4,6,5,9)      =    179.939056     0.000000     0.031371   179.970427
	   78 D(4,6,10,7)     =   -179.864560    -0.000002    -0.133306  -179.997866
	   79 D(4,6,10,18)    =     -0.015767     0.000000     0.016875     0.001108
	   80 D(5,3,1,14)     =    179.971142     0.000000     0.018779   179.989921
	   81 D(5,6,4,17)     =   -179.978106    -0.000000    -0.003900  -179.982006
	   82 D(5,6,10,7)     =      0.117424    -0.000002    -0.148643    -0.031219
	   83 D(5,6,10,18)    =    179.966216    -0.000000     0.001538   179.967755
	   84 D(5,9,7,10)     =      0.121196    -0.000001    -0.176655    -0.055459
	   85 D(5,9,7,13)     =   -179.823771    -0.000002    -0.171923  -179.995694
	   86 D(6,4,2,15)     =   -179.965509    -0.000000    -0.017445  -179.982954
	   87 D(6,5,3,16)     =   -179.993693    -0.000000     0.002947  -179.990747
	   88 D(6,5,9,7)      =     -0.046722     0.000001     0.079157     0.032435
	   89 D(6,10,7,9)     =     -0.154800     0.000002     0.211451     0.056652
	   90 D(6,10,7,13)    =    179.795645     0.000002     0.204355   180.000000
	   91 D(7,13,8,11)    =     -0.177184     0.000000     0.066215    -0.110969
	   92 D(7,13,8,12)    =    179.808323     0.000001     0.102722   179.911045
	   93 D(8,13,7,9)     =      0.121823    -0.000000    -0.025607     0.096216
	   94 D(8,13,7,10)    =   -179.817910    -0.000001    -0.022871  -179.840781
	   95 D(9,5,3,16)     =      0.047467    -0.000000    -0.020534     0.026933
	   96 D(9,5,6,10)     =     -0.044958     0.000000     0.044958     0.000000
	   97 D(9,7,10,18)    =    179.994443     0.000000     0.063248   180.057691
	   98 D(9,7,13,23)    =   -179.999138     0.000001     0.041865  -179.957273
	   99 D(10,6,4,17)    =      0.000925    -0.000000    -0.021153    -0.020228
	  100 D(10,7,13,23)   =      0.061129     0.000000     0.044602     0.105730
	  101 D(11,8,12,21)   =      0.048908    -0.000000    -0.011293     0.037615
	  102 D(11,8,12,22)   =    179.953162     0.000000     0.013146   179.966308
	  103 D(11,8,13,23)   =    179.937228     0.000000     0.004711   179.941938
	  104 D(12,8,11,19)   =     -0.004222    -0.000000    -0.029498    -0.033721
	  105 D(12,8,11,20)   =   -179.980623     0.000000     0.006306  -179.974317
	  106 D(12,8,13,23)   =     -0.077265     0.000000     0.041217    -0.036047
	  107 D(13,7,10,18)   =     -0.055112     0.000000     0.056113     0.001001
	  108 D(13,8,11,19)   =    179.981450     0.000000     0.007459   179.988908
	  109 D(13,8,11,20)   =      0.005049     0.000000     0.043263     0.048312
	  110 D(13,8,12,21)   =   -179.937248    -0.000001    -0.047152  -179.984400
	  111 D(13,8,12,22)   =     -0.032994    -0.000000    -0.022713    -0.055707
	  112 D(14,1,2,15)    =     -0.014384     0.000000     0.001987    -0.012397
	  113 D(14,1,3,16)    =      0.000000    -0.000000    -0.005731    -0.005731
	  114 D(15,2,4,17)    =      0.011952    -0.000000    -0.006600     0.005352
	  115 R(9,11)         =      2.753709    -0.000600    -0.030145     2.723565
	 ---------------------------------------------------------------------------
	Successfully symmetrized geometry.

  ==> Convergence Check <==

  Measures of convergence in internal coordinates in au.
  Criteria marked as inactive (o), active & met (*), and active & unmet ( ).
  --------------------------------------------------------------------------------------------- ~
   Step     Total Energy     Delta E     MAX Force     RMS Force      MAX Disp      RMS Disp    ~
  --------------------------------------------------------------------------------------------- ~
    Convergence Criteria    1.00e-06 *    3.00e-04 *             o    1.20e-03 *             o  ~
  --------------------------------------------------------------------------------------------- ~
      1    -582.14892208   -5.82e+02      2.73e-02      6.31e-03 o    8.32e-02      2.18e-02 o  ~
  ---------------------------------------------------------------------------------------------

	Writing optimization data to binary file.
	Structure for next step:
	Cartesian Geometry (in Angstrom)
	    C    -0.0481023481   0.8924709097  -3.5407181910
	    C    -1.4411701927   1.0679868294  -3.3449600026
	    C     0.7932618436   0.4974688050  -2.5029247864
	    C    -2.0460828572   0.8554216718  -2.1051480797
	    C     0.2031198899   0.2783160191  -1.2455209690
	    C    -1.1939389829   0.4583752736  -1.0661810271
	    C    -0.2123930116  -0.1645621657   0.7940277465
	    C     1.0455245952  -0.8606608904   2.7812690900
	    N     0.7880618544  -0.1116720006  -0.0599977891
	    N    -1.4341467347   0.1654241002   0.2625758935
	    N     2.2025012552  -0.8849852328   2.1352592900
	    N     0.9763730651  -1.1739572249   4.0864866981
	    N    -0.1001057752  -0.5198668730   2.1445326604
	    H     0.3823975225   1.0710252565  -4.5320318805
	    H    -2.0672619604   1.3801092529  -4.1887176067
	    H     1.8695928549   0.3622092443  -2.6555857710
	    H    -3.1231392388   0.9930585990  -1.9609616453
	    H    -2.3336157291   0.1917745866   0.7388993166
	    H     3.0613930462  -1.1408518322   2.6148270747
	    H     2.2232244849  -0.6388843999   1.1332809837
	    H     1.8131194530  -1.4349303110   4.6010966591
	    H     0.1001822176  -1.1612241616   4.6007276909
	    H    -0.9492795895  -0.5243378935   2.7047720364
			--------------------------
			 OPTKING Finished Execution 
			--------------------------

    Structure for next step:
    Molecular point group: c1
    Full point group: C1

    Geometry (in Angstrom), charge = 1, multiplicity = 1:

    C           -0.049533017255     0.892299842087    -3.542471140240
    C           -1.442600861871     1.067815761764    -3.346712951828
    C            0.791831174465     0.497297737401    -2.504677735626
    C           -2.047513526331     0.855250604170    -2.106901028885
    C            0.201689220744     0.278144951522    -1.247273918164
    C           -1.195369652077     0.458204205970    -1.067933976353
    C           -0.213823680759    -0.164733233256     0.792274797248
    C            1.044093925992    -0.860831957956     2.779516140776
    N            0.786631185262    -0.111843068198    -0.061750738338
    N           -1.435577403845     0.165253032551     0.260822944313
    N            2.201070585980    -0.885156300406     2.133506340838
    N            0.974942395963    -1.174128292526     4.084733748869
    N           -0.101536444389    -0.520037940633     2.142779711243
    H            0.380966853289     1.070854188845    -4.533784829710
    H           -2.068692629559     1.379938185263    -4.190470555893
    H            1.868162185735     0.362038176734    -2.657338720222
    H           -3.124569908007     0.992887531364    -1.962714594500
    H           -2.335046398256     0.191603519043     0.737146367407
    H            3.059962376990    -1.141022899836     2.613074125479
    H            2.221793815737    -0.639055467462     1.131528034477
    H            1.811688783780    -1.435101378557     4.599343709934
    H            0.098751548402    -1.161395229156     4.598974741674
    H           -0.950710258629    -0.524508961126     2.703019087177

gradient() will perform analytic gradient computation.
    SCF Algorithm Type (re)set to DF.

*** tstart() called on c-19-413.local
*** at Mon May  1 19:08:21 2017


         ---------------------------------------------------------
                                   SCF
            by Justin Turney, Rob Parrish, and Andy Simmonett
                              RHF Reference
                        1 Threads,   5000 MiB Core
         ---------------------------------------------------------

  ==> Geometry <==

    Molecular point group: c1
    Full point group: C1

    Geometry (in Angstrom), charge = 1, multiplicity = 1:

       Center              X                  Y                   Z               Mass       
    ------------   -----------------  -----------------  -----------------  -----------------
           C         -0.049533017255     0.892299842087    -3.542471140240    12.000000000000
           C         -1.442600861871     1.067815761764    -3.346712951828    12.000000000000
           C          0.791831174465     0.497297737401    -2.504677735626    12.000000000000
           C         -2.047513526331     0.855250604170    -2.106901028885    12.000000000000
           C          0.201689220744     0.278144951522    -1.247273918164    12.000000000000
           C         -1.195369652077     0.458204205970    -1.067933976353    12.000000000000
           C         -0.213823680759    -0.164733233256     0.792274797248    12.000000000000
           C          1.044093925992    -0.860831957956     2.779516140776    12.000000000000
           N          0.786631185262    -0.111843068198    -0.061750738338    14.003074004780
           N         -1.435577403845     0.165253032551     0.260822944313    14.003074004780
           N          2.201070585980    -0.885156300406     2.133506340838    14.003074004780
           N          0.974942395963    -1.174128292526     4.084733748869    14.003074004780
           N         -0.101536444389    -0.520037940633     2.142779711243    14.003074004780
           H          0.380966853289     1.070854188845    -4.533784829710     1.007825032070
           H         -2.068692629559     1.379938185263    -4.190470555893     1.007825032070
           H          1.868162185735     0.362038176734    -2.657338720222     1.007825032070
           H         -3.124569908007     0.992887531364    -1.962714594500     1.007825032070
           H         -2.335046398256     0.191603519043     0.737146367407     1.007825032070
           H          3.059962376990    -1.141022899836     2.613074125479     1.007825032070
           H          2.221793815737    -0.639055467462     1.131528034477     1.007825032070
           H          1.811688783780    -1.435101378557     4.599343709934     1.007825032070
           H          0.098751548402    -1.161395229156     4.598974741674     1.007825032070
           H         -0.950710258629    -0.524508961126     2.703019087177     1.007825032070

  Running in c1 symmetry.

  Rotational constants: A =      0.08937  B =      0.01411  C =      0.01218 [cm^-1]
  Rotational constants: A =   2679.25643  B =    422.86212  C =    365.22020 [MHz]
  Nuclear repulsion =  755.880666062498790

  Charge       = 1
  Multiplicity = 1
  Electrons    = 92
  Nalpha       = 46
  Nbeta        = 46

  ==> Algorithm <==

  SCF Algorithm Type is DF.
  DIIS enabled.
  MOM disabled.
  Fractional occupation disabled.
  Guess Type is READ.
  Energy threshold   = 1.00e-10
  Density threshold  = 1.00e-10
  Integral threshold = 0.00e+00

  ==> Primary Basis <==

  Basis Set: DEF2-SV(P)
    Number of shells: 98
    Number of basis function: 202
    Number of Cartesian functions: 215
    Spherical Harmonics?: true
    Max angular momentum: 2

  ==> Pre-Iterations <==

   -------------------------------------------------------
    Irrep   Nso     Nmo     Nalpha   Nbeta   Ndocc  Nsocc
   -------------------------------------------------------
     A        202     202       0       0       0       0
   -------------------------------------------------------
    Total     202     202      46      46      46       0
   -------------------------------------------------------

  ==> Integral Setup <==

  ==> DFJK: Density-Fitted J/K Matrices <==

    J tasked:                  Yes
    K tasked:                  Yes
    wK tasked:                  No
    OpenMP threads:              1
    Integrals threads:           1
    Memory (MB):              3576
    Algorithm:                Core
    Integral Cache:           NONE
    Schwarz Cutoff:          1E-12
    Fitting Condition:       1E-12

   => Auxiliary Basis Set <=

  Basis Set: 
    Number of shells: 385
    Number of basis function: 1165
    Number of Cartesian functions: 1377
    Spherical Harmonics?: true
    Max angular momentum: 4

  Minimum eigenvalue in the overlap matrix is 2.6014800848E-04.
  Using Symmetric Orthogonalization.
  SCF Guess: Reading in previously saved MOs, projecting if necessary.

  Using orbitals from previous SCF, no projection.
  Recomputing DOCC and SOCC from number of alpha and beta electrons from previous calculation.
              A 
    DOCC [    46 ]

  ==> Iterations <==

                           Total Energy        Delta E     RMS |[F,P]|

   @DF-RHF iter   0:  -580.28946131763644   -5.80289e+02   8.48308e-04 
   @DF-RHF iter   1:  -580.37539744053959   -8.59361e-02   1.65471e-04 
   @DF-RHF iter   2:  -580.37585269711633   -4.55257e-04   9.87074e-05 DIIS
   @DF-RHF iter   3:  -580.37602270895366   -1.70012e-04   1.56333e-05 DIIS
   @DF-RHF iter   4:  -580.37603217448680   -9.46553e-06   8.46768e-06 DIIS
   @DF-RHF iter   5:  -580.37603425584791   -2.08136e-06   2.43783e-06 DIIS
   @DF-RHF iter   6:  -580.37603475907270   -5.03225e-07   1.31871e-06 DIIS
   @DF-RHF iter   7:  -580.37603493676636   -1.77694e-07   6.32620e-07 DIIS
   @DF-RHF iter   8:  -580.37603498204851   -4.52821e-08   2.06840e-07 DIIS
   @DF-RHF iter   9:  -580.37603498648321   -4.43470e-09   7.63070e-08 DIIS
   @DF-RHF iter  10:  -580.37603498691112   -4.27917e-10   2.80471e-08 DIIS
   @DF-RHF iter  11:  -580.37603498697138   -6.02540e-11   1.03062e-08 DIIS
   @DF-RHF iter  12:  -580.37603498697797   -6.59384e-12   3.99122e-09 DIIS
   @DF-RHF iter  13:  -580.37603498697933   -1.36424e-12   1.26027e-09 DIIS
   @DF-RHF iter  14:  -580.37603498697979   -4.54747e-13   5.61722e-10 DIIS
   @DF-RHF iter  15:  -580.37603498697933    4.54747e-13   2.00241e-10 DIIS
   @DF-RHF iter  16:  -580.37603498697933    0.00000e+00   9.01848e-11 DIIS

  ==> Post-Iterations <==

    Orbital Energies (a.u.)
    -----------------------

    Doubly Occupied:                                                      

       1A    -15.812645     2A    -15.789672     3A    -15.772721  
       4A    -15.761990     5A    -15.697139     6A    -11.607691  
       7A    -11.520254     8A    -11.396663     9A    -11.380245  
      10A    -11.349714    11A    -11.343398    12A    -11.340869  
      13A    -11.334961    14A     -1.542574    15A     -1.484031  
      16A     -1.395173    17A     -1.373891    18A     -1.317137  
      19A     -1.234371    20A     -1.128077    21A     -1.109976  
      22A     -1.059810    23A     -1.001516    24A     -0.990151  
      25A     -0.968044    26A     -0.929854    27A     -0.919600  
      28A     -0.872878    29A     -0.863239    30A     -0.854067  
      31A     -0.827845    32A     -0.821590    33A     -0.795881  
      34A     -0.756859    35A     -0.734376    36A     -0.715366  
      37A     -0.713305    38A     -0.651971    39A     -0.632670  
      40A     -0.625195    41A     -0.614687    42A     -0.584180  
      43A     -0.584084    44A     -0.562126    45A     -0.428089  
      46A     -0.414490  

    Virtual:                                                              

      47A     -0.025093    48A     -0.015711    49A      0.020686  
      50A      0.032689    51A      0.042592    52A      0.049127  
      53A      0.071832    54A      0.088626    55A      0.103525  
      56A      0.109316    57A      0.127391    58A      0.151866  
      59A      0.167169    60A      0.175294    61A      0.192572  
      62A      0.224166    63A      0.256781    64A      0.260356  
      65A      0.292259    66A      0.306417    67A      0.322915  
      68A      0.327938    69A      0.347902    70A      0.357526  
      71A      0.369325    72A      0.376460    73A      0.394357  
      74A      0.441335    75A      0.452327    76A      0.486440  
      77A      0.490054    78A      0.503689    79A      0.512768  
      80A      0.546362    81A      0.562499    82A      0.568872  
      83A      0.577569    84A      0.587325    85A      0.593425  
      86A      0.598607    87A      0.605413    88A      0.610710  
      89A      0.639419    90A      0.654678    91A      0.680568  
      92A      0.687141    93A      0.741747    94A      0.747380  
      95A      0.756324    96A      0.785640    97A      0.808647  
      98A      0.811557    99A      0.823491   100A      0.827906  
     101A      0.832317   102A      0.846674   103A      0.852934  
     104A      0.854811   105A      0.862453   106A      0.874248  
     107A      0.885326   108A      0.899853   109A      0.921759  
     110A      0.932624   111A      0.947375   112A      0.948794  
     113A      0.960799   114A      0.961724   115A      0.982438  
     116A      0.995422   117A      1.014366   118A      1.030685  
     119A      1.038146   120A      1.076068   121A      1.107992  
     122A      1.154369   123A      1.188646   124A      1.214542  
     125A      1.234188   126A      1.268753   127A      1.294829  
     128A      1.337368   129A      1.366667   130A      1.374566  
     131A      1.388254   132A      1.404417   133A      1.447144  
     134A      1.451496   135A      1.494609   136A      1.500807  
     137A      1.531731   138A      1.537317   139A      1.556435  
     140A      1.570288   141A      1.602779   142A      1.620798  
     143A      1.649793   144A      1.663624   145A      1.672462  
     146A      1.677903   147A      1.707025   148A      1.898061  
     149A      1.953219   150A      1.974579   151A      2.037947  
     152A      2.050505   153A      2.092530   154A      2.124757  
     155A      2.169183   156A      2.169249   157A      2.179400  
     158A      2.192175   159A      2.217992   160A      2.224052  
     161A      2.240902   162A      2.246860   163A      2.265332  
     164A      2.295138   165A      2.303646   166A      2.376370  
     167A      2.381591   168A      2.421206   169A      2.462441  
     170A      2.468522   171A      2.501799   172A      2.508270  
     173A      2.607622   174A      2.623446   175A      2.646755  
     176A      2.657322   177A      2.689342   178A      2.694346  
     179A      2.703854   180A      2.721315   181A      2.775137  
     182A      2.806413   183A      2.833676   184A      2.874061  
     185A      2.887152   186A      2.912934   187A      2.918665  
     188A      2.964620   189A      2.975639   190A      3.024619  
     191A      3.025525   192A      3.061624   193A      3.097128  
     194A      3.108041   195A      3.164323   196A      3.320978  
     197A      3.335793   198A      3.394909   199A      3.505859  
     200A      3.548252   201A      3.635026   202A      3.806690  

    Final Occupation by Irrep:
              A 
    DOCC [    46 ]

  Energy converged.

  @DF-RHF Final Energy:  -580.37603498697933

   => Energetics <=

    Nuclear Repulsion Energy =            755.8806660624987899
    One-Electron Energy =               -2273.2832812720043876
    Two-Electron Energy =                 937.0265802225264906
    DFT Exchange-Correlation Energy =       0.0000000000000000
    Empirical Dispersion Energy =           0.0000000000000000
    PCM Polarization Energy =               0.0000000000000000
    EFP Energy =                            0.0000000000000000
    Total Energy =                       -580.3760349869792208


  Saving occupied orbitals to File 180.

*** tstop() called on c-19-413.local at Mon May  1 19:08:43 2017
Module time:
	user time   =      15.62 seconds =       0.26 minutes
	system time =       0.73 seconds =       0.01 minutes
	total time  =         22 seconds =       0.37 minutes
Total time:
	user time   =      92.00 seconds =       1.53 minutes
	system time =       5.78 seconds =       0.10 minutes
	total time  =        155 seconds =       2.58 minutes


Properties will be evaluated at   0.000000,   0.000000,   0.000000 Bohr

Properties computed using the SCF density matrix

  Nuclear Dipole Moment: (a.u.)
     X:     0.8951      Y:    -0.8399      Z:     2.8239

  Electronic Dipole Moment: (a.u.)
     X:    -0.5313      Y:    -0.4070      Z:     1.9527

  Dipole Moment: (a.u.)
     X:     0.3638      Y:    -1.2469      Z:     4.7766     Total:     4.9501

  Dipole Moment: (Debye)
     X:     0.9246      Y:    -3.1693      Z:    12.1410     Total:    12.5819


  //>>>>>>>>>>>>>>>>>>>>>>>>>>>>>>>>>>>//
  //               DFMP2               //
  //<<<<<<<<<<<<<<<<<<<<<<<<<<<<<<<<<<<//


*** tstart() called on c-19-413.local
*** at Mon May  1 19:08:43 2017


*** tstop() called on c-19-413.local at Mon May  1 19:08:43 2017
Module time:
	user time   =       0.18 seconds =       0.00 minutes
	system time =       0.00 seconds =       0.00 minutes
	total time  =          0 seconds =       0.00 minutes
Total time:
	user time   =      92.19 seconds =       1.54 minutes
	system time =       5.78 seconds =       0.10 minutes
	total time  =        155 seconds =       2.58 minutes
	 --------------------------------------------------------
	                          DF-MP2                         
	      2nd-Order Density-Fitted Moller-Plesset Theory     
	              RMP2 Wavefunction,   1 Threads             
	                                                         
	        Rob Parrish, Justin Turney, Andy Simmonett,      
	           Ed Hohenstein, and C. David Sherrill          
	 --------------------------------------------------------

   => Auxiliary Basis Set <=

  Basis Set: DEF2-SV(P)-RI
    Number of shells: 268
    Number of basis function: 764
    Number of Cartesian functions: 865
    Spherical Harmonics?: true
    Max angular momentum: 3

	 --------------------------------------------------------
	                 NBF =   202, NAUX =   764
	 --------------------------------------------------------
	   CLASS    FOCC     OCC    AOCC    AVIR     VIR    FVIR
	   PAIRS      13      46      33     156     156       0
	 --------------------------------------------------------

DGAS Warning! /src/lib/libfock/apps.cc:80 is not currently checking restricted

         ------------------------------------------------------------
                                     CPHF                           
                                  Rob Parrish                       
         ------------------------------------------------------------

  ==> Geometry <==

    Molecular point group: c1
    Full point group: C1

    Geometry (in Angstrom), charge = 1, multiplicity = 1:

       Center              X                  Y                   Z               Mass       
    ------------   -----------------  -----------------  -----------------  -----------------
           C         -0.049533017255     0.892299842087    -3.542471140240    12.000000000000
           C         -1.442600861871     1.067815761764    -3.346712951828    12.000000000000
           C          0.791831174465     0.497297737401    -2.504677735626    12.000000000000
           C         -2.047513526331     0.855250604170    -2.106901028885    12.000000000000
           C          0.201689220744     0.278144951522    -1.247273918164    12.000000000000
           C         -1.195369652077     0.458204205970    -1.067933976353    12.000000000000
           C         -0.213823680759    -0.164733233256     0.792274797248    12.000000000000
           C          1.044093925992    -0.860831957956     2.779516140776    12.000000000000
           N          0.786631185262    -0.111843068198    -0.061750738338    14.003074004780
           N         -1.435577403845     0.165253032551     0.260822944313    14.003074004780
           N          2.201070585980    -0.885156300406     2.133506340838    14.003074004780
           N          0.974942395963    -1.174128292526     4.084733748869    14.003074004780
           N         -0.101536444389    -0.520037940633     2.142779711243    14.003074004780
           H          0.380966853289     1.070854188845    -4.533784829710     1.007825032070
           H         -2.068692629559     1.379938185263    -4.190470555893     1.007825032070
           H          1.868162185735     0.362038176734    -2.657338720222     1.007825032070
           H         -3.124569908007     0.992887531364    -1.962714594500     1.007825032070
           H         -2.335046398256     0.191603519043     0.737146367407     1.007825032070
           H          3.059962376990    -1.141022899836     2.613074125479     1.007825032070
           H          2.221793815737    -0.639055467462     1.131528034477     1.007825032070
           H          1.811688783780    -1.435101378557     4.599343709934     1.007825032070
           H          0.098751548402    -1.161395229156     4.598974741674     1.007825032070
           H         -0.950710258629    -0.524508961126     2.703019087177     1.007825032070

  Nuclear repulsion =  755.880666062498562
  Reference energy  = -580.376034986979334

  ==> Basis Set <==

  Basis Set: DEF2-SV(P)
    Number of shells: 98
    Number of basis function: 202
    Number of Cartesian functions: 215
    Spherical Harmonics?: true
    Max angular momentum: 2

  ==> CGRSolver (by Rob Parrish) <==

   Number of roots    =         1
   Preconditioning    =    JACOBI
   Convergence cutoff =     1E-06
   Maximum iterations =       100

  ==> CPHFRHamiltonian (by Rob Parrish) <== 

  ==> DFJK: Density-Fitted J/K Matrices <==

    J tasked:                  Yes
    K tasked:                  Yes
    wK tasked:                  No
    OpenMP threads:              1
    Integrals threads:           1
    Memory (MB):              3576
    Algorithm:                Core
    Integral Cache:           NONE
    Schwarz Cutoff:          1E-12
    Fitting Condition:       1E-12

   => Auxiliary Basis Set <=

  Basis Set: 
    Number of shells: 385
    Number of basis function: 1165
    Number of Cartesian functions: 1377
    Spherical Harmonics?: true
    Max angular momentum: 4

  ==> CPHF Iterations <==

  => Iterations <=

             Iter  Converged  Remaining    Residual
  CGR           1          0          1   1.256E-01
  CGR           2          0          1   3.834E-02
  CGR           3          0          1   1.952E-02
  CGR           4          0          1   6.080E-03
  CGR           5          0          1   3.371E-03
  CGR           6          0          1   1.246E-03
  CGR           7          0          1   4.781E-04
  CGR           8          0          1   1.672E-04
  CGR           9          0          1   6.079E-05
  CGR          10          0          1   2.385E-05
  CGR          11          0          1   7.171E-06
  CGR          12          0          1   3.309E-06
  CGR          13          0          1   1.660E-06
  CGR          14          1          0   6.190E-07

    CGRSolver converged.

  ==> DFCorrGrad: Density-Fitted Correlated Gradients <==

    OpenMP threads:              1
    Integrals threads:           1
    Memory (MB):              3576
    Schwarz Cutoff:          0E+00
    Fitting Condition:       1E-12

   => Auxiliary Basis Set <=

  Basis Set: 
    Number of shells: 385
    Number of basis function: 1165
    Number of Cartesian functions: 1377
    Spherical Harmonics?: true
    Max angular momentum: 4

	-----------------------------------------------------------
	 ==================> DF-MP2 Energies <==================== 
	-----------------------------------------------------------
	 Reference Energy          =    -580.3760349869793345 [Eh]
	 Singles Energy            =      -0.0000000000000001 [Eh]
	 Same-Spin Energy          =      -0.4871103626119203 [Eh]
	 Opposite-Spin Energy      =      -1.2925870750263950 [Eh]
	 Correlation Energy        =      -1.7796974376383152 [Eh]
	 Total Energy              =    -582.1557324246176677 [Eh]
	-----------------------------------------------------------
	 ================> DF-SCS-MP2 Energies <================== 
	-----------------------------------------------------------
	 SCS Same-Spin Scale       =       0.3333333333333333 [-]
	 SCS Opposite-Spin Scale   =       1.2000000000000000 [-]
	 SCS Same-Spin Energy      =      -0.1623701208706401 [Eh]
	 SCS Opposite-Spin Energy  =      -1.5511044900316739 [Eh]
	 SCS Correlation Energy    =      -1.7134746109023140 [Eh]
	 SCS Total Energy          =    -582.0895095978816016 [Eh]
	-----------------------------------------------------------


  -Total Gradient:
     Atom            X                  Y                   Z
    ------   -----------------  -----------------  -----------------
       1       -0.000027182148     0.000100529084    -0.000388510195
       2        0.000697158671    -0.000136295293     0.000064857041
       3        0.001587025038    -0.000242452038    -0.000063950581
       4       -0.001980852094    -0.000000263206     0.001238476931
       5        0.003177396206    -0.002313765913     0.007053425366
       6       -0.000192372129    -0.001446774287     0.005782676485
       7        0.003274157401    -0.001870362052     0.004939618250
       8       -0.002432356395     0.000456105534    -0.000192548824
       9        0.003069617494     0.002722031705    -0.012408133426
      10       -0.010405080049     0.003166474241    -0.005687995446
      11        0.002125215411     0.000173307645    -0.002152853074
      12        0.000040517141    -0.000748813591     0.003020272797
      13       -0.003559626487     0.002173189184    -0.006583834655
      14        0.001029063274    -0.000309242158     0.000594106489
      15       -0.000689578340     0.000019430512     0.000413660867
      16        0.000521887908     0.000098087974    -0.000746196627
      17       -0.000206590064    -0.000000312208     0.000156035177
      18       -0.000388434631    -0.000247314476     0.001306549603
      19       -0.000211562997     0.000192527376    -0.000668959007
      20        0.004335070509    -0.001514744595     0.003348265287
      21        0.000161882415     0.000099828827    -0.000461322571
      22       -0.000446695318     0.000040412233     0.000108178643
      23        0.000521339182    -0.000411584500     0.001328181472


			-----------------------------------------
			 OPTKING 2.0: for geometry optimizations 
			  - R.A. King,  Bethel University        
			-----------------------------------------

	Previous internal coordinate definitions found.
	---Fragment 1 Geometry and Gradient---
	 C          -0.0936038371        1.6862023300       -6.6943002887
	 C          -2.7261205480        2.0178793501       -6.3243709243
	 C           1.4963440632        0.9397565302       -4.7331549715
	 C          -3.8692398181        1.6161894169       -3.9814659337
	 C           0.3811373912        0.5256177836       -2.3570061180
	 C          -2.2589212700        0.8658804622       -2.0181027433
	 C          -0.4040681974       -0.3113006958        1.4971823888
	 C           1.9730515771       -1.6267366470        5.2525242880
	 N           1.4865175077       -0.2113527688       -0.1166919840
	 N          -2.7128481358        0.3122829742        0.4928839339
	 N           4.1594206067       -1.6727029926        4.0317426870
	 N           1.8423741237       -2.2187809177        7.7190281111
	 N          -0.1918760724       -0.9827292865        4.0492668174
	 H           0.7199230184        2.0236211452       -8.5676116736
	 H          -3.9092625230        2.6077052505       -7.9188417186
	 H           3.5303149029        0.6841530037       -5.0216424235
	 H          -5.9045814092        1.8762855150       -3.7089930606
	 H          -4.4125982003        0.3620781771        1.3930047542
	 H           5.7824908694       -2.1562207920        4.9379944621
	 H           4.1985818355       -1.2076398172        2.1382780968
	 H           3.4235956394       -2.7119485784        8.6915000028
	 H           0.1866133817       -2.1947189151        8.6908027538
	 H          -1.7965820205       -0.9911782908        5.1079658067
	            -0.0000271821        0.0001005291       -0.0003885102
	             0.0006971587       -0.0001362953        0.0000648570
	             0.0015870250       -0.0002424520       -0.0000639506
	            -0.0019808521       -0.0000002632        0.0012384769
	             0.0031773962       -0.0023137659        0.0070534254
	            -0.0001923721       -0.0014467743        0.0057826765
	             0.0032741574       -0.0018703621        0.0049396183
	            -0.0024323564        0.0004561055       -0.0001925488
	             0.0030696175        0.0027220317       -0.0124081334
	            -0.0104050800        0.0031664742       -0.0056879954
	             0.0021252154        0.0001733076       -0.0021528531
	             0.0000405171       -0.0007488136        0.0030202728
	            -0.0035596265        0.0021731892       -0.0065838347
	             0.0010290633       -0.0003092422        0.0005941065
	            -0.0006895783        0.0000194305        0.0004136609
	             0.0005218879        0.0000980880       -0.0007461966
	            -0.0002065901       -0.0000003122        0.0001560352
	            -0.0003884346       -0.0002473145        0.0013065496
	            -0.0002115630        0.0001925274       -0.0006689590
	             0.0043350705       -0.0015147446        0.0033482653
	             0.0001618824        0.0000998288       -0.0004613226
	            -0.0004466953        0.0000404122        0.0001081786
	             0.0005213392       -0.0004115845        0.0013281815

	---Fragment 1 Intrafragment Coordinates---
	 - Coordinate -           - BOHR/RAD -       - ANG/DEG -
	 H(9,20)          =         3.665074	       1.939474
	 R(1,2)           =         2.678993	       1.417662
	 R(1,3)           =         2.632718	       1.393175
	 R(1,14)          =         2.070018	       1.095406
	 R(2,4)           =         2.637666	       1.395793
	 R(2,15)          =         2.071245	       1.096056
	 R(3,5)           =         2.657307	       1.406186
	 R(3,16)          =         2.070168	       1.095486
	 R(4,6)           =         2.647807	       1.401159
	 R(4,17)          =         2.069905	       1.095347
	 R(5,6)           =         2.683383	       1.419985
	 R(5,9)           =         2.604611	       1.378301
	 R(6,10)          =         2.611048	       1.381707
	 R(7,9)           =         2.487749	       1.316460
	 R(7,10)          =         2.593827	       1.372594
	 R(7,13)          =         2.647447	       1.400969
	 R(8,11)          =         2.504522	       1.325336
	 R(8,12)          =         2.539928	       1.344072
	 R(8,13)          =         2.559196	       1.354268
	 R(10,18)         =         1.924019	       1.018147
	 R(11,19)         =         1.920791	       1.016439
	 R(11,20)         =         1.950135	       1.031967
	 R(12,21)         =         1.920723	       1.016403
	 R(12,22)         =         1.920018	       1.016030
	 R(13,23)         =         1.922497	       1.017342
	 B(1,2,4)         =         2.129001	     121.982763
	 B(1,2,15)        =         2.083195	     119.358284
	 B(1,3,5)         =         2.045229	     117.183009
	 B(1,3,16)        =         2.122993	     121.638567
	 B(2,1,3)         =         2.124314	     121.714218
	 B(2,1,14)        =         2.083999	     119.404325
	 B(2,4,6)         =         2.024420	     115.990701
	 B(2,4,17)        =         2.122261	     121.596590
	 B(3,1,14)        =         2.074873	     118.881457
	 B(3,5,6)         =         2.101420	     120.402513
	 B(3,5,9)         =         2.258956	     129.428626
	 B(4,2,15)        =         2.070989	     118.658952
	 B(4,6,5)         =         2.141987	     122.726795
	 B(4,6,10)        =         2.301562	     131.869777
	 B(5,3,16)        =         2.114962	     121.178424
	 B(5,6,10)        =         1.839637	     105.403419
	 B(5,9,7)         =         1.820214	     104.290594
	 B(6,4,17)        =         2.136505	     122.412708
	 B(6,5,9)         =         1.922809	     110.168859
	 B(6,10,7)        =         1.842713	     105.579701
	 B(6,10,18)       =         2.211803	     126.726951
	 B(7,10,18)       =         2.228669	     127.693348
	 B(7,13,8)        =         2.195500	     125.792855
	 B(7,13,23)       =         2.054507	     117.714556
	 B(8,11,19)       =         2.108661	     120.817397
	 B(8,11,20)       =         2.078784	     119.105543
	 B(8,12,21)       =         2.105009	     120.608118
	 B(8,12,22)       =         2.132872	     122.204571
	 B(8,13,23)       =         2.033179	     116.492568
	 B(9,7,10)        =         1.999404	     114.557397
	 B(9,7,13)        =         2.182960	     125.074420
	 B(10,7,13)       =         2.100821	     120.368157
	 B(11,8,12)       =         2.110610	     120.929026
	 B(11,8,13)       =         2.110547	     120.925461
	 B(12,8,13)       =         2.062028	     118.145509
	 B(19,11,20)      =         2.095740	     120.077033
	 B(21,12,22)      =         2.045304	     117.187274
	 D(1,2,4,6)       =         0.000056	       0.003198
	 D(1,2,4,17)      =         3.141444	     179.991503
	 D(1,3,5,6)       =         0.000237	       0.013580
	 D(1,3,5,9)       =        -3.141047	    -179.968740
	 D(2,1,3,5)       =        -0.000079	      -0.004522
	 D(2,1,3,16)      =         3.141593	     180.000000
	 D(2,4,6,5)       =         0.000108	       0.006195
	 D(2,4,6,10)      =         3.141034	     179.967973
	 D(3,1,2,4)       =        -0.000071	      -0.004040
	 D(3,1,2,15)      =         3.141279	     179.982018
	 D(3,5,6,4)       =        -0.000262	      -0.015025
	 D(3,5,6,10)      =        -3.141340	    -179.985502
	 D(3,5,9,7)       =        -3.141310	    -179.983810
	 D(4,2,1,14)      =        -3.141566	    -179.998454
	 D(4,6,5,9)       =         3.141077	     179.970427
	 D(4,6,10,7)      =        -3.141555	    -179.997866
	 D(4,6,10,18)     =         0.000019	       0.001108
	 D(5,3,1,14)      =         3.141417	     179.989921
	 D(5,6,4,17)      =        -3.141279	    -179.982006
	 D(5,6,10,7)      =        -0.000545	      -0.031219
	 D(5,6,10,18)     =         3.141030	     179.967755
[...]
	 B(4,6,10)        =         2.308034	     132.240612
	 B(5,3,16)        =         2.109820	     120.883788
	 B(5,6,10)        =         1.834240	     105.094201
	 B(5,9,7)         =         1.829392	     104.816446
	 B(6,4,17)        =         2.136465	     122.410419
	 B(6,5,9)         =         1.914777	     109.708651
	 B(6,10,7)        =         1.854604	     106.260990
	 B(6,10,18)       =         2.195629	     125.800271
	 B(7,10,18)       =         2.232951	     127.938685
	 B(7,13,8)        =         2.175364	     124.639169
	 B(7,13,23)       =         2.053057	     117.631492
	 B(8,11,19)       =         2.116255	     121.252501
	 B(8,11,20)       =         2.037269	     116.726910
	 B(8,12,21)       =         2.107761	     120.765836
	 B(8,12,22)       =         2.132424	     122.178896
	 B(8,13,23)       =         2.054764	     117.729318
	 B(9,7,10)        =         1.991763	     114.119588
	 B(9,7,13)        =         2.168677	     124.256037
	 B(10,7,13)       =         2.122746	     121.624371
	 B(11,8,12)       =         2.129404	     122.005866
	 B(11,8,13)       =         2.089678	     119.729736
	 B(12,8,13)       =         2.064103	     118.264387
	 B(19,11,20)      =         2.129661	     122.020564
	 B(21,12,22)      =         2.043000	     117.055250
	 D(1,2,4,6)       =        -0.000034	      -0.001942
	 D(1,2,4,17)      =        -3.141523	    -179.996013
	 D(1,3,5,6)       =        -0.000041	      -0.002330
	 D(1,3,5,9)       =         3.141169	     179.975743
	 D(2,1,3,5)       =         0.000063	       0.003629
	 D(2,1,3,16)      =         3.141446	     179.991603
	 D(2,4,6,5)       =         0.000057	       0.003252
	 D(2,4,6,10)      =        -3.141526	    -179.996189
	 D(3,1,2,4)       =        -0.000026	      -0.001512
	 D(3,1,2,15)      =        -3.141518	    -179.995697
	 D(3,5,6,4)       =        -0.000020	      -0.001153
	 D(3,5,6,10)      =         3.141565	     179.998418
	 D(3,5,9,7)       =         3.140571	     179.941463
	 D(4,2,1,14)      =         3.141445	     179.991529
	 D(4,6,5,9)       =        -3.141301	    -179.983265
	 D(4,6,10,7)      =        -3.140717	    -179.949803
	 D(4,6,10,18)     =        -0.000498	      -0.028511
	 D(5,3,1,14)      =        -3.141407	    -179.989379
	 D(5,6,4,17)      =         3.141545	     179.997261
	 D(5,6,10,7)      =         0.000885	       0.050685
	 D(5,6,10,18)     =         3.141104	     179.971976
	 D(5,9,7,10)      =         0.002037	       0.116737
	 D(5,9,7,13)      =        -3.139947	    -179.905723
	 D(6,4,2,15)      =         3.141457	     179.992245
	 D(6,5,3,16)      =        -3.141426	    -179.990431
	 D(6,5,9,7)       =        -0.001372	      -0.078611
	 D(6,10,7,9)      =        -0.001904	      -0.109118
	 D(6,10,7,13)     =         3.140069	     179.912683
	 D(7,13,8,11)     =        -0.001511	      -0.086584
	 D(7,13,8,12)     =         3.140762	     179.952428
	 D(8,13,7,9)      =         0.000737	       0.042200
	 D(8,13,7,10)     =        -3.141276	    -179.981874
	 D(9,5,3,16)      =        -0.000216	      -0.012357
	 D(9,5,6,10)      =         0.000285	       0.016307
	 D(9,7,10,18)     =         3.141101	     179.971825
	 D(9,7,13,23)     =        -3.139920	    -179.904140
	 D(10,6,4,17)     =        -0.000038	      -0.002179
	 D(10,7,13,23)    =         0.001253	       0.071786
	 D(11,8,12,21)    =        -0.000107	      -0.006138
	 D(11,8,12,22)    =         3.140608	     179.943564
	 D(11,8,13,23)    =         3.139144	     179.859708
	 D(12,8,11,19)    =        -0.001198	      -0.068662
	 D(12,8,11,20)    =         3.139437	     179.876497
	 D(12,8,13,23)    =        -0.001768	      -0.101280
	 D(13,7,10,18)    =        -0.000111	      -0.006374
	 D(13,8,11,19)    =         3.141101	     179.971859
	 D(13,8,11,20)    =        -0.001448	      -0.082983
	 D(13,8,12,21)    =         3.140788	     179.953912
	 D(13,8,12,22)    =        -0.001682	      -0.096386
	 D(14,1,2,15)     =        -0.000046	      -0.002657
	 D(14,1,3,16)     =        -0.000025	      -0.001404
	 D(15,2,4,17)     =        -0.000032	      -0.001826
	 R(9,11)          =         4.995840	       2.643685

	Current energy   :      -582.1568394053

	Energy change for the previous step:
		Projected    :        -0.0000034611
		Actual       :        -0.0000002128
	Energy ratio indicates iffy step: Trust radius decreased to 2.500e-01.


	Performing BFGS update.
	Previous computed or guess Hessian on step 1.
	Steps to be used in Hessian update: 7 6
	Taking RFO optimization step.
	Going to follow RFO solution 1.
	Using RFO vector 1.
	Norm of target step-size    0.00543
	Projected energy change by RFO approximation:        -0.0000019245

	Back-transformation to cartesian coordinates...
	Could not converge backtransformation.
	Using first guess instead.

	--- Internal Coordinate Step in ANG or DEG, aJ/ANG or AJ/DEG ---
	 ---------------------------------------------------------------------------
	   Coordinate                Previous        Force       Change         New 
	   ----------                --------       ------       ------       ------
	    1 H(9,20)         =      1.797132     0.000118     0.000612     1.797744
	    2 R(1,2)          =      1.416426    -0.000044    -0.000002     1.416424
	    3 R(1,3)          =      1.393326    -0.000085    -0.000017     1.393309
	    4 R(1,14)         =      1.095640    -0.000076    -0.000013     1.095627
	    5 R(2,4)          =      1.395023    -0.000083    -0.000009     1.395015
	    6 R(2,15)         =      1.095835    -0.000111    -0.000021     1.095814
	    7 R(3,5)          =      1.404620    -0.000153    -0.000028     1.404592
	    8 R(3,16)         =      1.094729    -0.000062    -0.000011     1.094717
	    9 R(4,6)          =      1.401146    -0.000211    -0.000036     1.401110
	   10 R(4,17)         =      1.095119    -0.000034    -0.000005     1.095114
	   11 R(5,6)          =      1.415129     0.000001    -0.000006     1.415123
	   12 R(5,9)          =      1.387990     0.000444     0.000111     1.388101
	   13 R(6,10)         =      1.389396     0.000446     0.000101     1.389498
	   14 R(7,9)          =      1.312466    -0.000502    -0.000105     1.312361
	   15 R(7,10)         =      1.362724    -0.000512    -0.000094     1.362631
	   16 R(7,13)         =      1.405575     0.001173     0.000229     1.405804
	   17 R(8,11)         =      1.320026     0.000305     0.000051     1.320076
	   18 R(8,12)         =      1.341003    -0.000162    -0.000019     1.340984
	   19 R(8,13)         =      1.356738    -0.000623    -0.000125     1.356613
	   20 R(10,18)        =      1.017352    -0.000167    -0.000024     1.017328
	   21 R(11,19)        =      1.016920    -0.000190    -0.000025     1.016895
	   22 R(11,20)        =      1.045431    -0.000967    -0.000262     1.045169
	   23 R(12,21)        =      1.016589    -0.000039    -0.000006     1.016583
	   24 R(12,22)        =      1.015563    -0.000115    -0.000014     1.015549
	   25 R(13,23)        =      1.016785    -0.000079    -0.000009     1.016776
	   26 B(1,2,4)        =    121.857760    -0.000000     0.000030   121.857790
	   27 B(1,2,15)       =    119.086982    -0.000001    -0.007132   119.079850
	   28 B(1,3,5)        =    117.239113     0.000001     0.002967   117.242079
	   29 B(1,3,16)       =    121.877098     0.000001     0.006273   121.883372
	   30 B(2,1,3)        =    121.647957    -0.000001    -0.003460   121.644497
	   31 B(2,1,14)       =    118.931559    -0.000001    -0.008685   118.922874
	   32 B(2,4,6)        =    116.119428     0.000001     0.002699   116.122128
	   33 B(2,4,17)       =    121.470152    -0.000000    -0.000226   121.469926
	   34 B(3,1,14)       =    119.420484     0.000002     0.012145   119.432629
	   35 B(3,5,6)        =    120.470554    -0.000001     0.000391   120.470945
	   36 B(3,5,9)        =    129.820792     0.000003     0.003283   129.824075
	   37 B(4,2,15)       =    119.055258     0.000001     0.007102   119.062360
	   38 B(4,6,5)        =    122.665187    -0.000000    -0.002627   122.662560
	   39 B(4,6,10)       =    132.240612     0.000002     0.004358   132.244970
	   40 B(5,3,16)       =    120.883788    -0.000002    -0.009239   120.874549
	   41 B(5,6,10)       =    105.094201    -0.000002    -0.001731   105.092470
	   42 B(5,9,7)        =    104.816446     0.000001    -0.000721   104.815725
	   43 B(6,4,17)       =    122.410419    -0.000001    -0.002473   122.407946
	   44 B(6,5,9)        =    109.708651    -0.000002    -0.003671   109.704979
	   45 B(6,10,7)       =    106.260990     0.000001    -0.001617   106.259373
	   46 B(6,10,18)      =    125.800271    -0.000002    -0.015315   125.784956
	   47 B(7,10,18)      =    127.938685     0.000001     0.016982   127.955667
	   48 B(7,13,8)       =    124.639169    -0.000000     0.004269   124.643438
	   49 B(7,13,23)      =    117.631492    -0.000001    -0.012568   117.618924
	   50 B(8,11,19)      =    121.252501     0.000003     0.014616   121.267117
	   51 B(8,11,20)      =    116.726910    -0.000001     0.007299   116.734209
	   52 B(8,12,21)      =    120.765836     0.000002     0.009843   120.775679
	   53 B(8,12,22)      =    122.178896    -0.000000    -0.001768   122.177128
	   54 B(8,13,23)      =    117.729318     0.000002     0.008287   117.737606
	   55 B(9,7,10)       =    114.119588     0.000001     0.007865   114.127453
	   56 B(9,7,13)       =    124.256037     0.000001     0.004468   124.260505
	   57 B(10,7,13)      =    121.624371    -0.000001    -0.012329   121.612042
	   58 B(11,8,12)      =    122.005866    -0.000000    -0.007928   121.997938
	   59 B(11,8,13)      =    119.729736    -0.000002    -0.000249   119.729487
	   60 B(12,8,13)      =    118.264387     0.000002     0.008188   118.272575
	   61 B(19,11,20)     =    122.020564    -0.000002    -0.021895   121.998669
	   62 B(21,12,22)     =    117.055250    -0.000001    -0.008086   117.047164
	   63 D(1,2,4,6)      =     -0.001942     0.000000     0.001942     0.000000
	   64 D(1,2,4,17)     =   -179.996013    -0.000000    -0.003987  -180.000000
	   65 D(1,3,5,6)      =     -0.002330     0.000000     0.004128     0.001798
	   66 D(1,3,5,9)      =    179.975743     0.000000     0.019263   179.995007
	   67 D(2,1,3,5)      =      0.003629    -0.000000    -0.004737    -0.001108
	   68 D(2,1,3,16)     =    179.991603     0.000000     0.006762   179.998365
	   69 D(2,4,6,5)      =      0.003252    -0.000000    -0.003252     0.000000
	   70 D(2,4,6,10)     =   -179.996189    -0.000000    -0.005795  -180.001984
	   71 D(3,1,2,4)      =     -0.001512     0.000000     0.001512     0.000000
	   72 D(3,1,2,15)     =   -179.995697    -0.000000    -0.004303  -180.000000
	   73 D(3,5,6,4)      =     -0.001153     0.000000    -0.000370    -0.001523
	   74 D(3,5,6,10)     =    179.998418    -0.000000     0.001582   180.000000
	   75 D(3,5,9,7)      =    179.941463     0.000001     0.058537   180.000000
	   76 D(4,2,1,14)     =    179.991529     0.000000     0.007161   179.998690
	   77 D(4,6,5,9)      =   -179.983265    -0.000000    -0.012718  -179.995983
	   78 D(4,6,10,7)     =   -179.949803    -0.000001    -0.051750  -180.001553
	   79 D(4,6,10,18)    =     -0.028511     0.000000     0.007219    -0.021292
	   80 D(5,3,1,14)     =   -179.989379    -0.000000    -0.010621  -180.000000
	   81 D(5,6,4,17)     =    179.997261     0.000000     0.002739   180.000000
	   82 D(5,6,10,7)     =      0.050685    -0.000001    -0.054345    -0.003660
	   83 D(5,6,10,18)    =    179.971976     0.000000     0.004624   179.976601
	   84 D(5,9,7,10)     =      0.116737    -0.000001    -0.113307     0.003431
	   85 D(5,9,7,13)     =   -179.905723    -0.000001    -0.086763  -179.992486
	   86 D(6,4,2,15)     =    179.992245     0.000000     0.007755   180.000000
	   87 D(6,5,3,16)     =   -179.990431    -0.000000    -0.007249  -179.997680
	   88 D(6,5,9,7)      =     -0.078611     0.000001     0.072898    -0.005713
	   89 D(6,10,7,9)     =     -0.109118     0.000001     0.109118     0.000000
	   90 D(6,10,7,13)    =    179.912683     0.000001     0.083546   179.996229
	   91 D(7,13,8,11)    =     -0.086584     0.000001     0.065936    -0.020649
	   92 D(7,13,8,12)    =    179.952428     0.000001     0.033579   179.986007
	   93 D(8,13,7,9)     =      0.042200     0.000000     0.014986     0.057187
	   94 D(8,13,7,10)    =   -179.981874     0.000001     0.043437  -179.938437
	   95 D(9,5,3,16)     =     -0.012357     0.000000     0.007886    -0.004471
	   96 D(9,5,6,10)     =      0.016307    -0.000000    -0.010437     0.005870
	   97 D(9,7,10,18)    =    179.971825     0.000001     0.048675   180.020500
	   98 D(9,7,13,23)    =   -179.904140     0.000001     0.028656  -179.875484
	   99 D(10,6,4,17)    =     -0.002179     0.000000     0.000286    -0.001893
	  100 D(10,7,13,23)   =      0.071786     0.000001     0.057106     0.128892
	  101 D(11,8,12,21)   =     -0.006138    -0.000000    -0.019985    -0.026123
	  102 D(11,8,12,22)   =    179.943564    -0.000001    -0.033018   179.910546
	  103 D(11,8,13,23)   =    179.859708     0.000001     0.052241   179.911949
	  104 D(12,8,11,19)   =     -0.068662     0.000000     0.013995    -0.054666
	  105 D(12,8,11,20)   =    179.876497     0.000002     0.091356   179.967853
	  106 D(12,8,13,23)   =     -0.101280     0.000000     0.019885    -0.081395
	  107 D(13,7,10,18)   =     -0.006374     0.000000     0.022911     0.016537
	  108 D(13,8,11,19)   =    179.971859    -0.000000    -0.019613   179.952245
	  109 D(13,8,11,20)   =     -0.082983     0.000001     0.057748    -0.025235
	  110 D(13,8,12,21)   =    179.953912     0.000000     0.013150   179.967062
	  111 D(13,8,12,22)   =     -0.096386    -0.000000     0.000117    -0.096269
	  112 D(14,1,2,15)    =     -0.002657     0.000000     0.001207    -0.001450
	  113 D(14,1,3,16)    =     -0.001404     0.000000     0.001404     0.000000
	  114 D(15,2,4,17)    =     -0.001826     0.000000     0.001826     0.000000
	  115 R(9,11)         =      2.643685    -0.000085     0.000323     2.644007
	 ---------------------------------------------------------------------------
	Successfully symmetrized geometry.

  ==> Convergence Check <==

  Measures of convergence in internal coordinates in au.
  Criteria marked as inactive (o), active & met (*), and active & unmet ( ).
  ---------------------------------------------------------------------------------------------
   Step     Total Energy     Delta E     MAX Force     RMS Force      MAX Disp      RMS Disp   
  ---------------------------------------------------------------------------------------------
    Convergence Criteria    1.00e-06 *    3.00e-04 *             o    1.20e-03 *             o
  ---------------------------------------------------------------------------------------------
      8    -582.15683941   -2.13e-07 *    1.42e-04 *    3.43e-05 o    1.98e-03      5.07e-04 o  ~
  ---------------------------------------------------------------------------------------------


  **** Optimization is complete! (in 8 steps) ****

  ==> Optimization Summary <==

  Measures of convergence in internal coordinates in au.
  --------------------------------------------------------------------------------------------------------------- ~
   Step         Total Energy             Delta E       MAX Force       RMS Force        MAX Disp        RMS Disp  ~
  --------------------------------------------------------------------------------------------------------------- ~
      1    -582.148922080397   -582.148922080397      0.02729594      0.00630877      0.08316136      0.02184836  ~
      2    -582.155732424618     -0.006810344221      0.00727431      0.00177623      0.09269361      0.01106768  ~
      3    -582.156512195643     -0.000779771025      0.00244593      0.00049692      0.10323298      0.01162966  ~
      4    -582.156765410213     -0.000253214571      0.00196986      0.00037616      0.05839101      0.00671435  ~
      5    -582.156828680925     -0.000063270712      0.00088596      0.00018557      0.01542495      0.00345695  ~
      6    -582.156827800381      0.000000880544      0.00049087      0.00012578      0.00921020      0.00212169  ~
      7    -582.156839192483     -0.000011392102      0.00015871      0.00003915      0.00405884      0.00100500  ~
      8    -582.156839405304     -0.000000212821      0.00014241      0.00003430      0.00197757      0.00050651  ~
  --------------------------------------------------------------------------------------------------------------- ~

	Writing optimization data to binary file.
	Final energy is   -582.1568394053036
	Final (previous) structure:
	Cartesian Geometry (in Angstrom)
	    C    -0.0238533448   0.8872890320  -3.5349803448
	    C    -1.4174121452   1.0660989412  -3.3553069815
	    C     0.8037066834   0.4918217267  -2.4861207452
	    C    -2.0336673003   0.8561626519  -2.1215137051
	    C     0.1993953553   0.2759922884  -1.2366479370
	    C    -1.1942529514   0.4586575070  -1.0724265065
	    C    -0.2397991053  -0.1650937676   0.8111142915
	    C     1.0443973927  -0.8590056119   2.7741741598
	    N     0.7651706190  -0.1170080643  -0.0316731474
	    N    -1.4429224207   0.1642931443   0.2624651234
	    N     2.1672069306  -0.8677583649   2.0801355562
	    N     1.0113865973  -1.1767659896   4.0765676355
	    N    -0.1201751367  -0.5212453533   2.1655467655
	    H     0.4100610144   1.0653642167  -4.5251492506
	    H    -2.0289749440   1.3780546325  -4.2094310849
	    H     1.8811320127   0.3523743932  -2.6208047070
	    H    -3.1117684359   0.9962391009  -1.9897471015
	    H    -2.3511873546   0.1960614534   0.7196856590
	    H     3.0530734109  -1.1167861468   2.5129766721
	    H     2.0975226049  -0.6080201754   1.0698849739
	    H     1.8613322966  -1.4362767828   4.5702271164
	    H     0.1492287874  -1.1700899807   4.6132304910
	    H    -0.9670182348  -0.5266615522   2.7282900067
	Saving final (previous) structure.
			--------------------------
			 OPTKING Finished Execution 
			--------------------------

    Final optimized geometry and variables:
    Molecular point group: c1
    Full point group: C1

    Geometry (in Angstrom), charge = 1, multiplicity = 1:

    C           -0.023853344792     0.887289032006    -3.534980344783
    C           -1.417412145232     1.066098941167    -3.355306981508
    C            0.803706683361     0.491821726673    -2.486120745159
    C           -2.033667300253     0.856162651927    -2.121513705054
    C            0.199395355342     0.275992288426    -1.236647937043
    C           -1.194252951402     0.458657507047    -1.072426506462
    C           -0.239799105338    -0.165093767585     0.811114291503
    C            1.044397392704    -0.859005611870     2.774174159821
    N            0.765170619002    -0.117008064304    -0.031673147396
    N           -1.442922420681     0.164293144343     0.262465123450
    N            2.167206930564    -0.867758364891     2.080135556205
    N            1.011386597327    -1.176765989609     4.076567635515
    N           -0.120175136686    -0.521245353290     2.165546765548
    H            0.410061014352     1.065364216711    -4.525149250562
    H           -2.028974944024     1.378054632529    -4.209431084921
    H            1.881132012653     0.352374393248    -2.620804707001
    H           -3.111768435907     0.996239100865    -1.989747101517
    H           -2.351187354561     0.196061453369     0.719685659011
    H            3.053073410865    -1.116786146846     2.512976672143
    H            2.097522604887    -0.608020175431     1.069884973938
    H            1.861332296638    -1.436276782813     4.570227116363
    H            0.149228787441    -1.170089980653     4.613230491030
    H           -0.967018234803    -0.526661552202     2.728290006710

	Cleaning optimization helper files.

*** Psi4 exiting successfully. Buy a developer a beer!
