
    -----------------------------------------------------------------------
          Psi4: An Open-Source Ab Initio Electronic Structure Package
                               Psi4 1.1 release

                         Git: Rev {HEAD} add49b9 


    R. M. Parrish, L. A. Burns, D. G. A. Smith, A. C. Simmonett,
    A. E. DePrince III, E. G. Hohenstein, U. Bozkaya, A. Yu. Sokolov,
    R. Di Remigio, R. M. Richard, J. F. Gonthier, A. M. James,
    H. R. McAlexander, A. Kumar, M. Saitow, X. Wang, B. P. Pritchard,
    P. Verma, H. F. Schaefer III, K. Patkowski, R. A. King, E. F. Valeev,
    F. A. Evangelista, J. M. Turney, T. D. Crawford, and C. D. Sherrill,
    J. Chem. Theory Comput. in press (2017).
    (doi: 10.1021/acs.jctc.7b00174)

    -----------------------------------------------------------------------


    Psi4 started on: Tuesday, 09 October 2018 04:52PM

    Process ID:  29467
    PSIDATADIR: /beegfs/DATA/mobley/limvt/local/miniconda3/envs/oepython3/share/psi4
    Memory:     500.0 MiB
    Threads:    1
    
  ==> Input File <==

--------------------------------------------------------------------------
memory 5.0 Gb
molecule benzene {
  0 1
  C          1.00000        1.00000        0.00000
  C         -0.39900        1.00000        0.00000
  C          1.70000       -0.21200        0.00000
  H          1.54100        1.93700        0.00000
  C         -1.09900       -0.21200        0.00000
  H         -0.94000        1.93700        0.00000
  C         -0.39900       -1.42300        0.00000
  H         -2.18100       -0.21200        0.00000
  C          1.00000       -1.42300        0.00000
  H         -0.94000       -2.36100        0.00000
  H          1.54100       -2.36100        0.00000
  H          2.78200       -0.21200        0.00000
  units angstrom
  nocom
  noreorient
}

set basis def2-sv(p)

set hessian_write on
H, wfn = hessian('mp2', return_wfn=True)

wfn.hessian().print_out()
np.array(H)

--------------------------------------------------------------------------

  Memory set to   4.657 GiB by Python driver.
hessian() will perform frequency computation by finite difference of analytic gradients.

-------------------------------------------------------------

  Using finite-differences of gradients to determine vibrational frequencies and 
  normal modes.  Resulting frequencies are only valid at stationary points.
	Generating geometries for use with 3-point formula.
	Displacement size will be 5.00e-03.
	Number of atoms is 12.
	Number of irreps is 2.
	Number of SALCS is 30.
	Index of salcs per irrep:
	 1 :  0  1  2  3  4  5  6  7  8  9  10  11  12  13  14  15  16  17  18  19  20 
	 2 :  21  22  23  24  25  26  27  28  29 
	Number of SALC's per irrep:
		 Irrep 1: 21
		 Irrep 2: 9
	Number of geometries (including reference) is 52.
	Number of displacements per irrep:
	  Irrep 1: 42
	  Irrep 2: 9

-------------------------------------------------------------

  //>>>>>>>>>>>>>>>>>>>>>>>>>>>>>>>>>>>//
  //    Loading displacement 1 of 52   //
  //<<<<<<<<<<<<<<<<<<<<<<<<<<<<<<<<<<<//
gradient() will perform analytic gradient computation.

*** tstart() called on c-16-38.local
*** at Tue Oct  9 16:52:59 2018

    SCF Algorithm Type (re)set to DF.

*** tstart() called on c-16-38.local
*** at Tue Oct  9 16:52:59 2018

   => Loading Basis Set <=

    Name: DEF2-SV(P)
    Role: ORBITAL
    Keyword: BASIS
    atoms 1-3, 5, 7, 9   entry C          line    87 file /beegfs/DATA/mobley/limvt/local/miniconda3/envs/oepython3/share/psi4/basis/def2-sv_p_.gbs 
    atoms 4, 6, 8, 10-12 entry H          line    14 file /beegfs/DATA/mobley/limvt/local/miniconda3/envs/oepython3/share/psi4/basis/def2-sv_p_.gbs 


         ---------------------------------------------------------
                                   SCF
            by Justin Turney, Rob Parrish, and Andy Simmonett
                              RHF Reference
                        1 Threads,   4768 MiB Core
         ---------------------------------------------------------

  ==> Geometry <==

    Molecular point group: cs
    Full point group: Cs

    Geometry (in Angstrom), charge = 0, multiplicity = 1:

       Center              X                  Y                   Z               Mass       
    ------------   -----------------  -----------------  -----------------  -----------------
           C          0.999339691505     0.999949565920     0.000000000000    12.000000000000
           C         -0.398776793062     1.000050434080     0.000000000000    12.000000000000
           C          1.700135821512    -0.212100904211     0.000000000000    12.000000000000
           H          1.541290764813     1.936910559719     0.000000000000     1.007825032070
           C         -1.098864178488    -0.211899095789     0.000000000000    12.000000000000
           H         -0.939709235187     1.937089440281     0.000000000000     1.007825032070
           C         -0.398951491814    -1.422949565920     0.000000000000    12.000000000000
           H         -2.180864178488    -0.211821083387     0.000000000000     1.007825032070
           C          1.000048508186    -1.423050434080     0.000000000000    12.000000000000
           H         -0.940019121789    -2.360910559719     0.000000000000     1.007825032070
           H          1.540980878211    -2.361089440281     0.000000000000     1.007825032070
           H          2.782135821512    -0.212178916613     0.000000000000     1.007825032070

  Running in cs symmetry.

  Rotational constants: A =      0.18927  B =      0.16918  C =      0.08933 [cm^-1]
  Rotational constants: A =   5674.28968  B =   5071.91724  C =   2678.11032 [MHz]
  Nuclear repulsion =  203.018112362897938

  Charge       = 0
  Multiplicity = 1
  Electrons    = 42
  Nalpha       = 21
  Nbeta        = 21

  ==> Algorithm <==

  SCF Algorithm Type is DF.
  DIIS enabled.
  MOM disabled.
  Fractional occupation disabled.
  Guess Type is SAD.
  Energy threshold   = 1.00e-10
  Density threshold  = 1.00e-10
  Integral threshold = 0.00e+00

  ==> Primary Basis <==

  Basis Set: DEF2-SV(P)
    Blend: DEF2-SV(P)
    Number of shells: 48
    Number of basis function: 96
    Number of Cartesian functions: 102
    Spherical Harmonics?: true
    Max angular momentum: 2

   => Loading Basis Set <=

    Name: (DEF2-SV(P) AUX)
    Role: JKFIT
    Keyword: DF_BASIS_SCF
    atoms 1-3, 5, 7, 9   entry C          line   202 file /beegfs/DATA/mobley/limvt/local/miniconda3/envs/oepython3/share/psi4/basis/def2-sv_p_-jkfit.gbs 
    atoms 4, 6, 8, 10-12 entry H          line    22 file /beegfs/DATA/mobley/limvt/local/miniconda3/envs/oepython3/share/psi4/basis/def2-sv_p_-jkfit.gbs 

  ==> Pre-Iterations <==

   -------------------------------------------------------
    Irrep   Nso     Nmo     Nalpha   Nbeta   Ndocc  Nsocc
   -------------------------------------------------------
     A'        72      72       0       0       0       0
     A"        24      24       0       0       0       0
   -------------------------------------------------------
    Total      96      96      21      21      21       0
   -------------------------------------------------------

  ==> Integral Setup <==

  ==> DFJK: Density-Fitted J/K Matrices <==

    J tasked:                  Yes
    K tasked:                  Yes
    wK tasked:                  No
    OpenMP threads:              1
    Integrals threads:           1
    Memory (MB):              3576
    Algorithm:                Core
    Integral Cache:           NONE
    Schwarz Cutoff:          1E-12
    Fitting Condition:       1E-12

   => Auxiliary Basis Set <=

  Basis Set: (DEF2-SV(P) AUX)
    Blend: DEF2-SV_P_-JKFIT
    Number of shells: 186
    Number of basis function: 558
    Number of Cartesian functions: 654
    Spherical Harmonics?: true
    Max angular momentum: 4

  Minimum eigenvalue in the overlap matrix is 3.2895230018E-04.
  Using Symmetric Orthogonalization.

  SCF Guess: Superposition of Atomic Densities via on-the-fly atomic UHF.

  ==> Iterations <==

                           Total Energy        Delta E     RMS |[F,P]|

   @DF-RHF iter   0:  -232.91440624424550   -2.32914e+02   5.89266e-02 
   @DF-RHF iter   1:  -230.41848028639325    2.49593e+00   4.60746e-03 
   @DF-RHF iter   2:  -230.50909876157573   -9.06185e-02   1.33670e-03 DIIS
   @DF-RHF iter   3:  -230.51653861024604   -7.43985e-03   5.18717e-04 DIIS
   @DF-RHF iter   4:  -230.51747618647008   -9.37576e-04   7.26052e-05 DIIS
   @DF-RHF iter   5:  -230.51750091160415   -2.47251e-05   1.92977e-05 DIIS
   @DF-RHF iter   6:  -230.51750257504693   -1.66344e-06   5.26824e-06 DIIS
   @DF-RHF iter   7:  -230.51750272171506   -1.46668e-07   8.03909e-07 DIIS
   @DF-RHF iter   8:  -230.51750272669597   -4.98090e-09   1.50153e-07 DIIS
   @DF-RHF iter   9:  -230.51750272688284   -1.86873e-10   4.76365e-08 DIIS
   @DF-RHF iter  10:  -230.51750272689981   -1.69678e-11   2.39439e-08 DIIS
   @DF-RHF iter  11:  -230.51750272690475   -4.94538e-12   9.14177e-09 DIIS
   @DF-RHF iter  12:  -230.51750272690754   -2.78533e-12   2.98353e-09 DIIS
   @DF-RHF iter  13:  -230.51750272690759   -5.68434e-14   9.71319e-10 DIIS
   @DF-RHF iter  14:  -230.51750272690691    6.82121e-13   2.48455e-10 DIIS
   @DF-RHF iter  15:  -230.51750272690771   -7.95808e-13   4.70460e-11 DIIS

  ==> Post-Iterations <==

    Orbital Energies (a.u.)
    -----------------------

    Doubly Occupied:                                                      

       1Ap   -11.238270     2Ap   -11.237771     3Ap   -11.237733  
       4Ap   -11.236645     5Ap   -11.236602     6Ap   -11.236102  
       7Ap    -1.137959     8Ap    -1.003286     9Ap    -1.003136  
      10Ap    -0.817650    11Ap    -0.817351    12Ap    -0.710113  
      13Ap    -0.641037    14Ap    -0.622254    15Ap    -0.590922  
      16Ap    -0.590762     1App   -0.501602    17Ap    -0.499040  
      18Ap    -0.498522     2App   -0.337657     3App   -0.337456  

    Virtual:                                                              

       4App    0.132182     5App    0.132473    19Ap     0.182602  
      20Ap     0.222448    21Ap     0.222488    22Ap     0.259705  
      23Ap     0.259732    24Ap     0.281305     6App    0.346999  
      25Ap     0.454077    26Ap     0.454239    27Ap     0.470223  
      28Ap     0.470562    29Ap     0.528360    30Ap     0.592592  
      31Ap     0.593402    32Ap     0.593472    33Ap     0.622463  
      34Ap     0.662930     7App    0.689029    35Ap     0.711030  
      36Ap     0.711282    37Ap     0.740439     8App    0.757990  
       9App    0.758122    10App    0.837247    11App    0.837379  
      12App    0.916139    38Ap     0.918284    39Ap     0.918635  
      40Ap     0.932283    41Ap     0.932339    42Ap     0.980733  
      43Ap     0.980997    44Ap     0.997131    45Ap     1.013665  
      46Ap     1.026641    47Ap     1.027252    48Ap     1.104748  
      49Ap     1.178435    50Ap     1.268208    51Ap     1.268309  
      13App    1.506462    52Ap     1.512998    53Ap     1.513249  
      14App    1.652906    15App    1.752207    16App    1.752605  
      54Ap     1.771712    17App    1.784585    18App    1.784803  
      55Ap     2.020217    56Ap     2.041880    57Ap     2.074401  
      58Ap     2.184152    59Ap     2.184220    60Ap     2.305697  
      61Ap     2.305887    62Ap     2.386128    63Ap     2.386490  
      19App    2.443226    20App    2.443506    21App    2.614758  
      22App    2.619207    23App    2.620493    64Ap     2.760261  
      65Ap     2.760596    66Ap     2.835256    24App    2.982622  
      67Ap     3.026241    68Ap     3.027002    69Ap     3.048054  
      70Ap     3.048751    71Ap     3.335295    72Ap     3.728070  

    Final Occupation by Irrep:
             Ap   App 
    DOCC [    18,    3 ]

  Energy converged.

  @DF-RHF Final Energy:  -230.51750272690771

   => Energetics <=

    Nuclear Repulsion Energy =            203.0181123628979378
    One-Electron Energy =                -712.0074905796093390
    Two-Electron Energy =                 278.4718754898037218
    DFT Exchange-Correlation Energy =       0.0000000000000000
    Empirical Dispersion Energy =           0.0000000000000000
    PCM Polarization Energy =               0.0000000000000000
    EFP Energy =                            0.0000000000000000
    Total Energy =                       -230.5175027269077077



Properties will be evaluated at   0.000000,   0.000000,   0.000000 Bohr

Properties computed using the SCF density matrix

  Nuclear Dipole Moment: (a.u.)
     X:    23.8510      Y:   -16.8034      Z:     0.0000

  Electronic Dipole Moment: (a.u.)
     X:   -23.8509      Y:    16.8036      Z:     0.0000

  Dipole Moment: (a.u.)
     X:     0.0001      Y:     0.0001      Z:     0.0000     Total:     0.0001

  Dipole Moment: (Debye)
     X:     0.0002      Y:     0.0003      Z:     0.0000     Total:     0.0004


*** tstop() called on c-16-38.local at Tue Oct  9 16:53:04 2018
Module time:
	user time   =       4.67 seconds =       0.08 minutes
	system time =       0.09 seconds =       0.00 minutes
	total time  =          5 seconds =       0.08 minutes
Total time:
	user time   =       4.67 seconds =       0.08 minutes
	system time =       0.09 seconds =       0.00 minutes
	total time  =          5 seconds =       0.08 minutes

  //>>>>>>>>>>>>>>>>>>>>>>>>>>>>>>>>>>>//
  //               DFMP2               //
  //<<<<<<<<<<<<<<<<<<<<<<<<<<<<<<<<<<<//

   => Loading Basis Set <=

    Name: (DEF2-SV(P) AUX)
    Role: RIFIT
    Keyword: DF_BASIS_MP2
    atoms 1-3, 5, 7, 9   entry C          line   152 file /beegfs/DATA/mobley/limvt/local/miniconda3/envs/oepython3/share/psi4/basis/def2-sv_p_-ri.gbs 
    atoms 4, 6, 8, 10-12 entry H          line    21 file /beegfs/DATA/mobley/limvt/local/miniconda3/envs/oepython3/share/psi4/basis/def2-sv_p_-ri.gbs 

	 --------------------------------------------------------
	                          DF-MP2                         
	      2nd-Order Density-Fitted Moller-Plesset Theory     
	              RMP2 Wavefunction,   1 Threads             
	                                                         
	        Rob Parrish, Justin Turney, Andy Simmonett,      
	           Ed Hohenstein, and C. David Sherrill          
	 --------------------------------------------------------

   => Auxiliary Basis Set <=

  Basis Set: (DEF2-SV(P) AUX)
    Blend: DEF2-SV_P_-RI
    Number of shells: 132
    Number of basis function: 372
    Number of Cartesian functions: 420
    Spherical Harmonics?: true
    Max angular momentum: 3

	 --------------------------------------------------------
	                 NBF =    96, NAUX =   372
	 --------------------------------------------------------
	   CLASS    FOCC     OCC    AOCC    AVIR     VIR    FVIR
	   PAIRS       0      21      21      75      75       0
	 --------------------------------------------------------


         ------------------------------------------------------------
                                     CPHF                           
                                  Rob Parrish                       
         ------------------------------------------------------------

  ==> Geometry <==

    Molecular point group: cs
    Full point group: Cs

    Geometry (in Angstrom), charge = 0, multiplicity = 1:

       Center              X                  Y                   Z               Mass       
    ------------   -----------------  -----------------  -----------------  -----------------
           C          0.999339691505     0.999949565920     0.000000000000    12.000000000000
           C         -0.398776793062     1.000050434080     0.000000000000    12.000000000000
           C          1.700135821512    -0.212100904211     0.000000000000    12.000000000000
           H          1.541290764813     1.936910559719     0.000000000000     1.007825032070
           C         -1.098864178488    -0.211899095789     0.000000000000    12.000000000000
           H         -0.939709235187     1.937089440281     0.000000000000     1.007825032070
           C         -0.398951491814    -1.422949565920     0.000000000000    12.000000000000
           H         -2.180864178488    -0.211821083387     0.000000000000     1.007825032070
           C          1.000048508186    -1.423050434080     0.000000000000    12.000000000000
           H         -0.940019121789    -2.360910559719     0.000000000000     1.007825032070
           H          1.540980878211    -2.361089440281     0.000000000000     1.007825032070
           H          2.782135821512    -0.212178916613     0.000000000000     1.007825032070

  Nuclear repulsion =  203.018112362897938
  Reference energy  = -230.517502726907708

  ==> Basis Set <==

  Basis Set: DEF2-SV(P)
    Blend: DEF2-SV(P)
    Number of shells: 48
    Number of basis function: 96
    Number of Cartesian functions: 102
    Spherical Harmonics?: true
    Max angular momentum: 2

  ==> CGRSolver (by Rob Parrish) <==

   Number of roots    =         1
   Preconditioning    =    JACOBI
   Convergence cutoff =     1E-06
   Maximum iterations =       100

  ==> CPHFRHamiltonian (by Rob Parrish) <== 

  ==> DFJK: Density-Fitted J/K Matrices <==

    J tasked:                  Yes
    K tasked:                  Yes
    wK tasked:                  No
    OpenMP threads:              1
    Integrals threads:           1
    Memory (MB):              3576
    Algorithm:                Core
    Integral Cache:           NONE
    Schwarz Cutoff:          1E-12
    Fitting Condition:       1E-12

   => Auxiliary Basis Set <=

  Basis Set: (DEF2-SV(P) AUX)
    Blend: DEF2-SV_P_-JKFIT
    Number of shells: 186
    Number of basis function: 558
    Number of Cartesian functions: 654
    Spherical Harmonics?: true
    Max angular momentum: 4

  ==> CPHF Iterations <==

  => Iterations <=

             Iter  Converged  Remaining    Residual
  CGR           1          0          1   9.459E-02
  CGR           2          0          1   9.942E-03
  CGR           3          0          1   1.778E-03
  CGR           4          0          1   1.896E-04
  CGR           5          0          1   7.578E-05
  CGR           6          0          1   4.350E-05
  CGR           7          0          1   1.294E-05
  CGR           8          0          1   3.129E-06
  CGR           9          1          0   7.841E-07

    CGRSolver converged.

  ==> DFCorrGrad: Density-Fitted Correlated Gradients <==

    OpenMP threads:              1
    Integrals threads:           1
    Memory (MB):              3576
    Schwarz Cutoff:          0E+00
    Fitting Condition:       1E-12

   => Auxiliary Basis Set <=

  Basis Set: (DEF2-SV(P) AUX)
    Blend: DEF2-SV_P_-JKFIT
    Number of shells: 186
    Number of basis function: 558
    Number of Cartesian functions: 654
    Spherical Harmonics?: true
    Max angular momentum: 4

	-----------------------------------------------------------
	 ==================> DF-MP2 Energies <==================== 
	-----------------------------------------------------------
	 Reference Energy          =    -230.5175027269077077 [Eh]
	 Singles Energy            =      -0.0000000000000000 [Eh]
	 Same-Spin Energy          =      -0.2018115078325332 [Eh]
	 Opposite-Spin Energy      =      -0.5538144631119701 [Eh]
	 Correlation Energy        =      -0.7556259709445033 [Eh]
	 Total Energy              =    -231.2731286978522007 [Eh]
	-----------------------------------------------------------
	 ================> DF-SCS-MP2 Energies <================== 
	-----------------------------------------------------------
	 SCS Same-Spin Scale       =       0.3333333333333333 [-]
	 SCS Opposite-Spin Scale   =       1.2000000000000000 [-]
	 SCS Same-Spin Energy      =      -0.0672705026108444 [Eh]
	 SCS Opposite-Spin Energy  =      -0.6645773557343642 [Eh]
	 SCS Correlation Energy    =      -0.7318478583452086 [Eh]
	 SCS Total Energy          =    -231.2493505852529267 [Eh]
	-----------------------------------------------------------


  -Total Gradient:
     Atom            X                  Y                   Z
    ------   -----------------  -----------------  -----------------
       1        0.003182598052     0.008277129052     0.000000000000
       2       -0.003779111333     0.008292479543    -0.000000000000
       3        0.009810412331    -0.000676240808    -0.000000000000
       4       -0.004837441239    -0.008556974896     0.000000000000
       5       -0.009452558586    -0.000439368061    -0.000000000000
       6        0.005078755050    -0.008780377729     0.000000000000
       7       -0.004157543796    -0.007277637175     0.000000000000
       8        0.010099507465     0.000003804437     0.000000000000
       9        0.004135205406    -0.007266772606    -0.000000000000
      10        0.004759132329     0.008231294295    -0.000000000000
      11       -0.004754868592     0.008240335772     0.000000000000
      12       -0.010084087087    -0.000047671823    -0.000000000000


*** tstop() called on c-16-38.local at Tue Oct  9 16:53:17 2018
Module time:
	user time   =      16.60 seconds =       0.28 minutes
	system time =       0.58 seconds =       0.01 minutes
	total time  =         18 seconds =       0.30 minutes
Total time:
	user time   =      16.60 seconds =       0.28 minutes
	system time =       0.58 seconds =       0.01 minutes
	total time  =         18 seconds =       0.30 minutes

  //>>>>>>>>>>>>>>>>>>>>>>>>>>>>>>>>>>>//
  //    Loading displacement 2 of 52   //
  //<<<<<<<<<<<<<<<<<<<<<<<<<<<<<<<<<<<//
gradient() will perform analytic gradient computation.

*** tstart() called on c-16-38.local
*** at Tue Oct  9 16:53:17 2018

    SCF Algorithm Type (re)set to DF.

*** tstart() called on c-16-38.local
*** at Tue Oct  9 16:53:17 2018

   => Loading Basis Set <=

    Name: DEF2-SV(P)
    Role: ORBITAL
    Keyword: BASIS
    atoms 1-3, 5, 7, 9   entry C          line    87 file /beegfs/DATA/mobley/limvt/local/miniconda3/envs/oepython3/share/psi4/basis/def2-sv_p_.gbs 
    atoms 4, 6, 8, 10-12 entry H          line    14 file /beegfs/DATA/mobley/limvt/local/miniconda3/envs/oepython3/share/psi4/basis/def2-sv_p_.gbs 


         ---------------------------------------------------------
                                   SCF
            by Justin Turney, Rob Parrish, and Andy Simmonett
                              RHF Reference
                        1 Threads,   4768 MiB Core
         ---------------------------------------------------------

  ==> Geometry <==

    Molecular point group: cs
    Full point group: Cs

    Geometry (in Angstrom), charge = 0, multiplicity = 1:

       Center              X                  Y                   Z               Mass       
    ------------   -----------------  -----------------  -----------------  -----------------
           C          1.000660308495     1.000050434080     0.000000000000    12.000000000000
           C         -0.399223206938     0.999949565920     0.000000000000    12.000000000000
           C          1.699864178488    -0.211899095789     0.000000000000    12.000000000000
           H          1.540709235187     1.937089440281     0.000000000000     1.007825032070
           C         -1.099135821512    -0.212100904211     0.000000000000    12.000000000000
           H         -0.940290764813     1.936910559719     0.000000000000     1.007825032070
           C         -0.399048508186    -1.423050434080     0.000000000000    12.000000000000
           H         -2.181135821512    -0.212178916613     0.000000000000     1.007825032070
           C          0.999951491814    -1.422949565920     0.000000000000    12.000000000000
           H         -0.939980878211    -2.361089440281     0.000000000000     1.007825032070
           H          1.541019121789    -2.360910559719     0.000000000000     1.007825032070
           H          2.781864178488    -0.211821083387     0.000000000000     1.007825032070

  Running in cs symmetry.

  Rotational constants: A =      0.18920  B =      0.16919  C =      0.08932 [cm^-1]
  Rotational constants: A =   5672.12709  B =   5072.13573  C =   2677.68938 [MHz]
  Nuclear repulsion =  203.004139949854562

  Charge       = 0
  Multiplicity = 1
  Electrons    = 42
  Nalpha       = 21
  Nbeta        = 21

  ==> Algorithm <==

  SCF Algorithm Type is DF.
  DIIS enabled.
  MOM disabled.
  Fractional occupation disabled.
  Guess Type is SAD.
  Energy threshold   = 1.00e-10
  Density threshold  = 1.00e-10
  Integral threshold = 0.00e+00

  ==> Primary Basis <==

  Basis Set: DEF2-SV(P)
    Blend: DEF2-SV(P)
    Number of shells: 48
    Number of basis function: 96
    Number of Cartesian functions: 102
    Spherical Harmonics?: true
    Max angular momentum: 2

   => Loading Basis Set <=

    Name: (DEF2-SV(P) AUX)
    Role: JKFIT
    Keyword: DF_BASIS_SCF
    atoms 1-3, 5, 7, 9   entry C          line   202 file /beegfs/DATA/mobley/limvt/local/miniconda3/envs/oepython3/share/psi4/basis/def2-sv_p_-jkfit.gbs 
    atoms 4, 6, 8, 10-12 entry H          line    22 file /beegfs/DATA/mobley/limvt/local/miniconda3/envs/oepython3/share/psi4/basis/def2-sv_p_-jkfit.gbs 

  ==> Pre-Iterations <==

   -------------------------------------------------------
    Irrep   Nso     Nmo     Nalpha   Nbeta   Ndocc  Nsocc
   -------------------------------------------------------
     A'        72      72       0       0       0       0
     A"        24      24       0       0       0       0
   -------------------------------------------------------
    Total      96      96      21      21      21       0
   -------------------------------------------------------

  ==> Integral Setup <==

  ==> DFJK: Density-Fitted J/K Matrices <==

    J tasked:                  Yes
    K tasked:                  Yes
    wK tasked:                  No
    OpenMP threads:              1
    Integrals threads:           1
    Memory (MB):              3576
    Algorithm:                Core
    Integral Cache:           NONE
    Schwarz Cutoff:          1E-12
    Fitting Condition:       1E-12

   => Auxiliary Basis Set <=

  Basis Set: (DEF2-SV(P) AUX)
    Blend: DEF2-SV_P_-JKFIT
    Number of shells: 186
    Number of basis function: 558
    Number of Cartesian functions: 654
    Spherical Harmonics?: true
    Max angular momentum: 4

  Minimum eigenvalue in the overlap matrix is 3.2930189880E-04.
  Using Symmetric Orthogonalization.

  SCF Guess: Superposition of Atomic Densities via on-the-fly atomic UHF.

  ==> Iterations <==

                           Total Energy        Delta E     RMS |[F,P]|

   @DF-RHF iter   0:  -232.56031656796480   -2.32560e+02   5.81524e-02 
   @DF-RHF iter   1:  -230.38045790495048    2.17986e+00   5.37860e-03 
   @DF-RHF iter   2:  -230.50459903483292   -1.24141e-01   1.64846e-03 DIIS
   @DF-RHF iter   3:  -230.51582255992298   -1.12235e-02   6.63466e-04 DIIS
   @DF-RHF iter   4:  -230.51744349330335   -1.62093e-03   9.07955e-05 DIIS
   @DF-RHF iter   5:  -230.51748239274511   -3.88994e-05   2.37157e-05 DIIS
   @DF-RHF iter   6:  -230.51748487753255   -2.48479e-06   6.42861e-06 DIIS
   @DF-RHF iter   7:  -230.51748509954771   -2.22015e-07   9.00664e-07 DIIS
   @DF-RHF iter   8:  -230.51748510593183   -6.38411e-09   1.89820e-07 DIIS
   @DF-RHF iter   9:  -230.51748510614254   -2.10719e-10   9.65048e-08 DIIS
   @DF-RHF iter  10:  -230.51748510618120   -3.86535e-11   1.74862e-08 DIIS
   @DF-RHF iter  11:  -230.51748510618322   -2.01794e-12   3.83710e-09 DIIS
   @DF-RHF iter  12:  -230.51748510618395   -7.38964e-13   1.02382e-09 DIIS
   @DF-RHF iter  13:  -230.51748510618376    1.98952e-13   4.07481e-10 DIIS
   @DF-RHF iter  14:  -230.51748510618370    5.68434e-14   1.82876e-10 DIIS
   @DF-RHF iter  15:  -230.51748510618333    3.69482e-13   7.71614e-11 DIIS

  ==> Post-Iterations <==

    Orbital Energies (a.u.)
    -----------------------

    Doubly Occupied:                                                      

       1Ap   -11.238293     2Ap   -11.237790     3Ap   -11.237759  
       4Ap   -11.236665     5Ap   -11.236629     6Ap   -11.236125  
       7Ap    -1.137870     8Ap    -1.003284     9Ap    -1.003069  
      10Ap    -0.817513    11Ap    -0.817498    12Ap    -0.710114  
      13Ap    -0.641137    14Ap    -0.622188    15Ap    -0.591001  
      16Ap    -0.590719     1App   -0.501534    17Ap    -0.498812  
      18Ap    -0.498804     2App   -0.337609     3App   -0.337438  

    Virtual:                                                              

       4App    0.132256     5App    0.132330    19Ap     0.182637  
      20Ap     0.222481    21Ap     0.222485    22Ap     0.259696  
      23Ap     0.259729    24Ap     0.281304     6App    0.346924  
      25Ap     0.454007    26Ap     0.454192    27Ap     0.470276  
      28Ap     0.470389    29Ap     0.528385    30Ap     0.592635  
      31Ap     0.593397    32Ap     0.593532    33Ap     0.622444  
      34Ap     0.662877     7App    0.689058    35Ap     0.711122  
      36Ap     0.711258    37Ap     0.740335     8App    0.758057  
       9App    0.758125    10App    0.837285    11App    0.837332  
      12App    0.916108    38Ap     0.918481    39Ap     0.918656  
      40Ap     0.932288    41Ap     0.932359    42Ap     0.980607  
      43Ap     0.981029    44Ap     0.997125    45Ap     1.013721  
      46Ap     1.026794    47Ap     1.026948    48Ap     1.104560  
      49Ap     1.178278    50Ap     1.268176    51Ap     1.268227  
      13App    1.506464    52Ap     1.513053    53Ap     1.513158  
      14App    1.652955    15App    1.752301    16App    1.752385  
      54Ap     1.771658    17App    1.784529    18App    1.784794  
      55Ap     2.020245    56Ap     2.041737    57Ap     2.074503  
      58Ap     2.184186    59Ap     2.184358    60Ap     2.305487  
      61Ap     2.305781    62Ap     2.386106    63Ap     2.386137  
      19App    2.442970    20App    2.443520    21App    2.614532  
      22App    2.619626    23App    2.619768    64Ap     2.760067  
      65Ap     2.760622    66Ap     2.835164    24App    2.982323  
      67Ap     3.026225    68Ap     3.026507    69Ap     3.048062  
      70Ap     3.048294    71Ap     3.335073    72Ap     3.727711  

    Final Occupation by Irrep:
             Ap   App 
    DOCC [    18,    3 ]

  Energy converged.

  @DF-RHF Final Energy:  -230.51748510618333

   => Energetics <=

    Nuclear Repulsion Energy =            203.0041399498545616
    One-Electron Energy =                -711.9795516245144427
    Two-Electron Energy =                 278.4579265684765232
    DFT Exchange-Correlation Energy =       0.0000000000000000
    Empirical Dispersion Energy =           0.0000000000000000
    PCM Polarization Energy =               0.0000000000000000
    EFP Energy =                            0.0000000000000000
    Total Energy =                       -230.5174851061833579



Properties will be evaluated at   0.000000,   0.000000,   0.000000 Bohr

Properties computed using the SCF density matrix

  Nuclear Dipole Moment: (a.u.)
     X:    23.8495      Y:   -16.8034      Z:     0.0000

  Electronic Dipole Moment: (a.u.)
     X:   -23.8495      Y:    16.8039      Z:     0.0000

  Dipole Moment: (a.u.)
     X:    -0.0001      Y:     0.0005      Z:     0.0000     Total:     0.0005

  Dipole Moment: (Debye)
     X:    -0.0002      Y:     0.0012      Z:     0.0000     Total:     0.0012


*** tstop() called on c-16-38.local at Tue Oct  9 16:53:22 2018
Module time:
	user time   =       4.58 seconds =       0.08 minutes
	system time =       0.06 seconds =       0.00 minutes
	total time  =          5 seconds =       0.08 minutes
Total time:
	user time   =      21.20 seconds =       0.35 minutes
	system time =       0.64 seconds =       0.01 minutes
	total time  =         23 seconds =       0.38 minutes

  //>>>>>>>>>>>>>>>>>>>>>>>>>>>>>>>>>>>//
  //               DFMP2               //
  //<<<<<<<<<<<<<<<<<<<<<<<<<<<<<<<<<<<//

   => Loading Basis Set <=

    Name: (DEF2-SV(P) AUX)
    Role: RIFIT
    Keyword: DF_BASIS_MP2
    atoms 1-3, 5, 7, 9   entry C          line   152 file /beegfs/DATA/mobley/limvt/local/miniconda3/envs/oepython3/share/psi4/basis/def2-sv_p_-ri.gbs 
    atoms 4, 6, 8, 10-12 entry H          line    21 file /beegfs/DATA/mobley/limvt/local/miniconda3/envs/oepython3/share/psi4/basis/def2-sv_p_-ri.gbs 

	 --------------------------------------------------------
	                          DF-MP2                         
	      2nd-Order Density-Fitted Moller-Plesset Theory     
	              RMP2 Wavefunction,   1 Threads             
	                                                         
	        Rob Parrish, Justin Turney, Andy Simmonett,      
	           Ed Hohenstein, and C. David Sherrill          
	 --------------------------------------------------------

   => Auxiliary Basis Set <=

  Basis Set: (DEF2-SV(P) AUX)
    Blend: DEF2-SV_P_-RI
    Number of shells: 132
    Number of basis function: 372
    Number of Cartesian functions: 420
    Spherical Harmonics?: true
    Max angular momentum: 3

	 --------------------------------------------------------
	                 NBF =    96, NAUX =   372
	 --------------------------------------------------------
	   CLASS    FOCC     OCC    AOCC    AVIR     VIR    FVIR
	   PAIRS       0      21      21      75      75       0
	 --------------------------------------------------------


         ------------------------------------------------------------
                                     CPHF                           
                                  Rob Parrish                       
         ------------------------------------------------------------

  ==> Geometry <==

    Molecular point group: cs
    Full point group: Cs

    Geometry (in Angstrom), charge = 0, multiplicity = 1:

       Center              X                  Y                   Z               Mass       
    ------------   -----------------  -----------------  -----------------  -----------------
           C          1.000660308495     1.000050434080     0.000000000000    12.000000000000
           C         -0.399223206938     0.999949565920     0.000000000000    12.000000000000
           C          1.699864178488    -0.211899095789     0.000000000000    12.000000000000
           H          1.540709235187     1.937089440281     0.000000000000     1.007825032070
           C         -1.099135821512    -0.212100904211     0.000000000000    12.000000000000
           H         -0.940290764813     1.936910559719     0.000000000000     1.007825032070
           C         -0.399048508186    -1.423050434080     0.000000000000    12.000000000000
           H         -2.181135821512    -0.212178916613     0.000000000000     1.007825032070
           C          0.999951491814    -1.422949565920     0.000000000000    12.000000000000
           H         -0.939980878211    -2.361089440281     0.000000000000     1.007825032070
           H          1.541019121789    -2.360910559719     0.000000000000     1.007825032070
           H          2.781864178488    -0.211821083387     0.000000000000     1.007825032070

  Nuclear repulsion =  203.004139949854562
  Reference energy  = -230.517485106183329

  ==> Basis Set <==

  Basis Set: DEF2-SV(P)
    Blend: DEF2-SV(P)
    Number of shells: 48
    Number of basis function: 96
    Number of Cartesian functions: 102
    Spherical Harmonics?: true
    Max angular momentum: 2

  ==> CGRSolver (by Rob Parrish) <==

   Number of roots    =         1
   Preconditioning    =    JACOBI
   Convergence cutoff =     1E-06
   Maximum iterations =       100

  ==> CPHFRHamiltonian (by Rob Parrish) <== 

  ==> DFJK: Density-Fitted J/K Matrices <==

    J tasked:                  Yes
    K tasked:                  Yes
    wK tasked:                  No
    OpenMP threads:              1
    Integrals threads:           1
    Memory (MB):              3576
    Algorithm:                Core
    Integral Cache:           NONE
    Schwarz Cutoff:          1E-12
    Fitting Condition:       1E-12

   => Auxiliary Basis Set <=

  Basis Set: (DEF2-SV(P) AUX)
    Blend: DEF2-SV_P_-JKFIT
    Number of shells: 186
    Number of basis function: 558
    Number of Cartesian functions: 654
    Spherical Harmonics?: true
    Max angular momentum: 4

  ==> CPHF Iterations <==

  => Iterations <=

             Iter  Converged  Remaining    Residual
  CGR           1          0          1   9.457E-02
  CGR           2          0          1   9.938E-03
  CGR           3          0          1   1.770E-03
  CGR           4          0          1   1.717E-04
  CGR           5          0          1   3.952E-05
  CGR           6          0          1   1.369E-05
  CGR           7          0          1   6.080E-06
  CGR           8          0          1   2.188E-06
  CGR           9          1          0   7.517E-07

    CGRSolver converged.

  ==> DFCorrGrad: Density-Fitted Correlated Gradients <==

    OpenMP threads:              1
    Integrals threads:           1
    Memory (MB):              3576
    Schwarz Cutoff:          0E+00
    Fitting Condition:       1E-12

   => Auxiliary Basis Set <=

  Basis Set: (DEF2-SV(P) AUX)
    Blend: DEF2-SV_P_-JKFIT
    Number of shells: 186
    Number of basis function: 558
    Number of Cartesian functions: 654
    Spherical Harmonics?: true
    Max angular momentum: 4

	-----------------------------------------------------------
	 ==================> DF-MP2 Energies <==================== 
	-----------------------------------------------------------
	 Reference Energy          =    -230.5174851061833294 [Eh]
	 Singles Energy            =      -0.0000000000000001 [Eh]
	 Same-Spin Energy          =      -0.2018103837400165 [Eh]
	 Opposite-Spin Energy      =      -0.5538184920063893 [Eh]
	 Correlation Energy        =      -0.7556288757464059 [Eh]
	 Total Energy              =    -231.2731139819297255 [Eh]
	-----------------------------------------------------------
	 ================> DF-SCS-MP2 Energies <================== 
	-----------------------------------------------------------
	 SCS Same-Spin Scale       =       0.3333333333333333 [-]
	 SCS Opposite-Spin Scale   =       1.2000000000000000 [-]
	 SCS Same-Spin Energy      =      -0.0672701279133388 [Eh]
	 SCS Opposite-Spin Energy  =      -0.6645821904076672 [Eh]
	 SCS Correlation Energy    =      -0.7318523183210062 [Eh]
	 SCS Total Energy          =    -231.2493374245043469 [Eh]
	-----------------------------------------------------------


  -Total Gradient:
     Atom            X                  Y                   Z
    ------   -----------------  -----------------  -----------------
       1        0.005629467345     0.008394102973     0.000000000000
       2       -0.005032905712     0.008378744822    -0.000000000000
       3        0.009179988837    -0.000405396982    -0.000000000000
       4       -0.005289337114    -0.009019177403    -0.000000000000
       5       -0.009537943453    -0.000642893513     0.000000000000
       6        0.005048164470    -0.008795159200    -0.000000000000
       7       -0.004288458667    -0.007203402457    -0.000000000000
       8        0.010100523316    -0.000003650254    -0.000000000000
       9        0.004310805379    -0.007214218734    -0.000000000000
      10        0.004754535426     0.008236103308     0.000000000000
      11       -0.004758801263     0.008227066371     0.000000000000
      12       -0.010116038562     0.000047881071    -0.000000000000


*** tstop() called on c-16-38.local at Tue Oct  9 16:53:35 2018
Module time:
	user time   =      16.41 seconds =       0.27 minutes
	system time =       0.47 seconds =       0.01 minutes
	total time  =         18 seconds =       0.30 minutes
Total time:
	user time   =      33.03 seconds =       0.55 minutes
	system time =       1.05 seconds =       0.02 minutes
	total time  =         36 seconds =       0.60 minutes

  //>>>>>>>>>>>>>>>>>>>>>>>>>>>>>>>>>>>//
  //    Loading displacement 3 of 52   //
  //<<<<<<<<<<<<<<<<<<<<<<<<<<<<<<<<<<<//
gradient() will perform analytic gradient computation.

*** tstart() called on c-16-38.local
*** at Tue Oct  9 16:53:35 2018

    SCF Algorithm Type (re)set to DF.

*** tstart() called on c-16-38.local
*** at Tue Oct  9 16:53:35 2018

   => Loading Basis Set <=

    Name: DEF2-SV(P)
    Role: ORBITAL
    Keyword: BASIS
    atoms 1-3, 5, 7, 9   entry C          line    87 file /beegfs/DATA/mobley/limvt/local/miniconda3/envs/oepython3/share/psi4/basis/def2-sv_p_.gbs 
    atoms 4, 6, 8, 10-12 entry H          line    14 file /beegfs/DATA/mobley/limvt/local/miniconda3/envs/oepython3/share/psi4/basis/def2-sv_p_.gbs 


         ---------------------------------------------------------
                                   SCF
            by Justin Turney, Rob Parrish, and Andy Simmonett
                              RHF Reference
                        1 Threads,   4768 MiB Core
         ---------------------------------------------------------

  ==> Geometry <==

    Molecular point group: cs
    Full point group: Cs

    Geometry (in Angstrom), charge = 0, multiplicity = 1:

       Center              X                  Y                   Z               Mass       
    ------------   -----------------  -----------------  -----------------  -----------------
           C          1.000000000000     0.999313031723     0.000000000000    12.000000000000
           C         -0.399064863677     1.000098883961     0.000000000000    12.000000000000
           C          1.699990040906    -0.211806029637     0.000000000000    12.000000000000
           H          1.540892689463     1.937186767534     0.000000000000     1.007825032070
           C         -1.099009959094    -0.211932826607     0.000000000000    12.000000000000
           H         -0.940107310537     1.937074376222     0.000000000000     1.007825032070
           C         -0.398955099812    -1.422901116039     0.000000000000    12.000000000000
           H         -2.181009959094    -0.211981842085     0.000000000000     1.007825032070
           C          1.000044900188    -1.422837740204     0.000000000000    12.000000000000
           H         -0.939912607651    -2.360925623778     0.000000000000     1.007825032070
           H          1.541087392349    -2.360813232466     0.000000000000     1.007825032070
           H          2.781990040906    -0.211757014159     0.000000000000     1.007825032070

  Running in cs symmetry.

  Rotational constants: A =      0.18928  B =      0.16919  C =      0.08934 [cm^-1]
  Rotational constants: A =   5674.60946  B =   5072.10841  C =   2678.23485 [MHz]
  Nuclear repulsion =  203.022232108597024

  Charge       = 0
  Multiplicity = 1
  Electrons    = 42
  Nalpha       = 21
  Nbeta        = 21

  ==> Algorithm <==

  SCF Algorithm Type is DF.
  DIIS enabled.
  MOM disabled.
  Fractional occupation disabled.
  Guess Type is SAD.
  Energy threshold   = 1.00e-10
  Density threshold  = 1.00e-10
  Integral threshold = 0.00e+00

  ==> Primary Basis <==

  Basis Set: DEF2-SV(P)
    Blend: DEF2-SV(P)
    Number of shells: 48
    Number of basis function: 96
    Number of Cartesian functions: 102
    Spherical Harmonics?: true
    Max angular momentum: 2

   => Loading Basis Set <=

    Name: (DEF2-SV(P) AUX)
    Role: JKFIT
    Keyword: DF_BASIS_SCF
    atoms 1-3, 5, 7, 9   entry C          line   202 file /beegfs/DATA/mobley/limvt/local/miniconda3/envs/oepython3/share/psi4/basis/def2-sv_p_-jkfit.gbs 
    atoms 4, 6, 8, 10-12 entry H          line    22 file /beegfs/DATA/mobley/limvt/local/miniconda3/envs/oepython3/share/psi4/basis/def2-sv_p_-jkfit.gbs 

  ==> Pre-Iterations <==

   -------------------------------------------------------
    Irrep   Nso     Nmo     Nalpha   Nbeta   Ndocc  Nsocc
   -------------------------------------------------------
     A'        72      72       0       0       0       0
     A"        24      24       0       0       0       0
   -------------------------------------------------------
    Total      96      96      21      21      21       0
   -------------------------------------------------------

  ==> Integral Setup <==

  ==> DFJK: Density-Fitted J/K Matrices <==

    J tasked:                  Yes
    K tasked:                  Yes
    wK tasked:                  No
    OpenMP threads:              1
    Integrals threads:           1
    Memory (MB):              3576
    Algorithm:                Core
    Integral Cache:           NONE
    Schwarz Cutoff:          1E-12
    Fitting Condition:       1E-12

   => Auxiliary Basis Set <=

  Basis Set: (DEF2-SV(P) AUX)
    Blend: DEF2-SV_P_-JKFIT
    Number of shells: 186
    Number of basis function: 558
    Number of Cartesian functions: 654
    Spherical Harmonics?: true
    Max angular momentum: 4

  Minimum eigenvalue in the overlap matrix is 3.2884972013E-04.
  Using Symmetric Orthogonalization.

  SCF Guess: Superposition of Atomic Densities via on-the-fly atomic UHF.

  ==> Iterations <==

                           Total Energy        Delta E     RMS |[F,P]|

   @DF-RHF iter   0:  -233.01382541164440   -2.33014e+02   5.91686e-02 
   @DF-RHF iter   1:  -230.42494232110292    2.58888e+00   4.46165e-03 
   @DF-RHF iter   2:  -230.50982362612652   -8.48813e-02   1.28205e-03 DIIS
   @DF-RHF iter   3:  -230.51664059724044   -6.81697e-03   4.96927e-04 DIIS
   @DF-RHF iter   4:  -230.51748504150115   -8.44444e-04   6.85839e-05 DIIS
   @DF-RHF iter   5:  -230.51750717306945   -2.21316e-05   1.80642e-05 DIIS
   @DF-RHF iter   6:  -230.51750863903555   -1.46597e-06   4.91212e-06 DIIS
   @DF-RHF iter   7:  -230.51750876593164   -1.26896e-07   7.73138e-07 DIIS
   @DF-RHF iter   8:  -230.51750877039285   -4.46121e-09   1.38045e-07 DIIS
   @DF-RHF iter   9:  -230.51750877054161   -1.48759e-10   3.72830e-08 DIIS
   @DF-RHF iter  10:  -230.51750877054928   -7.67386e-12   1.80854e-08 DIIS
   @DF-RHF iter  11:  -230.51750877055056   -1.27898e-12   3.82047e-09 DIIS
   @DF-RHF iter  12:  -230.51750877055085   -2.84217e-13   1.66031e-09 DIIS
   @DF-RHF iter  13:  -230.51750877055093   -8.52651e-14   8.71042e-10 DIIS
   @DF-RHF iter  14:  -230.51750877055122   -2.84217e-13   2.76521e-10 DIIS
   @DF-RHF iter  15:  -230.51750877055079    4.26326e-13   6.10439e-11 DIIS

  ==> Post-Iterations <==

    Orbital Energies (a.u.)
    -----------------------

    Doubly Occupied:                                                      

       1Ap   -11.238263     2Ap   -11.237755     3Ap   -11.237736  
       4Ap   -11.236627     5Ap   -11.236607     6Ap   -11.236096  
       7Ap    -1.137985     8Ap    -1.003298     9Ap    -1.003144  
      10Ap    -0.817597    11Ap    -0.817402    12Ap    -0.710113  
      13Ap    -0.641007    14Ap    -0.622273    15Ap    -0.590990  
      16Ap    -0.590683     1App   -0.501622    17Ap    -0.498952  
      18Ap    -0.498596     2App   -0.337620     3App   -0.337512  

    Virtual:                                                              

       4App    0.132265     5App    0.132408    19Ap     0.182591  
      20Ap     0.222451    21Ap     0.222475    22Ap     0.259705  
      23Ap     0.259735    24Ap     0.281306     6App    0.347021  
      25Ap     0.454118    26Ap     0.454237    27Ap     0.470320  
      28Ap     0.470497    29Ap     0.528354    30Ap     0.592580  
      31Ap     0.593367    32Ap     0.593488    33Ap     0.622468  
      34Ap     0.662946     7App    0.689020    35Ap     0.711088  
      36Ap     0.711205    37Ap     0.740469     8App    0.758017  
       9App    0.758075    10App    0.837285    11App    0.837343  
      12App    0.916149    38Ap     0.918248    39Ap     0.918607  
      40Ap     0.932275    41Ap     0.932340    42Ap     0.980729  
      43Ap     0.981036    44Ap     0.997133    45Ap     1.013650  
      46Ap     1.026814    47Ap     1.027115    48Ap     1.104806  
      49Ap     1.178477    50Ap     1.268268    51Ap     1.268282  
      13App    1.506461    52Ap     1.513031    53Ap     1.513226  
      14App    1.652891    15App    1.752265    16App    1.752580  
      54Ap     1.771727    17App    1.784536    18App    1.784871  
      55Ap     2.020228    56Ap     2.041908    57Ap     2.074366  
      58Ap     2.184100    59Ap     2.184222    60Ap     2.305679  
      61Ap     2.306004    62Ap     2.386263    63Ap     2.386459  
      19App    2.443189    20App    2.443618    21App    2.614812  
      22App    2.619529    23App    2.620268    64Ap     2.760249  
      65Ap     2.760659    66Ap     2.835283    24App    2.982710  
      67Ap     3.026507    68Ap     3.026877    69Ap     3.048302  
      70Ap     3.048640    71Ap     3.335359    72Ap     3.728176  

    Final Occupation by Irrep:
             Ap   App 
    DOCC [    18,    3 ]

  Energy converged.

  @DF-RHF Final Energy:  -230.51750877055079

   => Energetics <=

    Nuclear Repulsion Energy =            203.0222321085970236
    One-Electron Energy =                -712.0157274399508651
    Two-Electron Energy =                 278.4759865608031077
    DFT Exchange-Correlation Energy =       0.0000000000000000
    Empirical Dispersion Energy =           0.0000000000000000
    PCM Polarization Energy =               0.0000000000000000
    EFP Energy =                            0.0000000000000000
    Total Energy =                       -230.5175087705507622



Properties will be evaluated at   0.000000,   0.000000,   0.000000 Bohr

Properties computed using the SCF density matrix

  Nuclear Dipole Moment: (a.u.)
     X:    23.8502      Y:   -16.8027      Z:     0.0000

  Electronic Dipole Moment: (a.u.)
     X:   -23.8503      Y:    16.8029      Z:     0.0000

  Dipole Moment: (a.u.)
     X:    -0.0002      Y:     0.0002      Z:     0.0000     Total:     0.0002

  Dipole Moment: (Debye)
     X:    -0.0004      Y:     0.0005      Z:     0.0000     Total:     0.0006


*** tstop() called on c-16-38.local at Tue Oct  9 16:53:40 2018
Module time:
	user time   =       4.54 seconds =       0.08 minutes
	system time =       0.05 seconds =       0.00 minutes
	total time  =          5 seconds =       0.08 minutes
Total time:
	user time   =      37.59 seconds =       0.63 minutes
	system time =       1.10 seconds =       0.02 minutes
	total time  =         41 seconds =       0.68 minutes

  //>>>>>>>>>>>>>>>>>>>>>>>>>>>>>>>>>>>//
  //               DFMP2               //
  //<<<<<<<<<<<<<<<<<<<<<<<<<<<<<<<<<<<//

   => Loading Basis Set <=

    Name: (DEF2-SV(P) AUX)
    Role: RIFIT
    Keyword: DF_BASIS_MP2
    atoms 1-3, 5, 7, 9   entry C          line   152 file /beegfs/DATA/mobley/limvt/local/miniconda3/envs/oepython3/share/psi4/basis/def2-sv_p_-ri.gbs 
    atoms 4, 6, 8, 10-12 entry H          line    21 file /beegfs/DATA/mobley/limvt/local/miniconda3/envs/oepython3/share/psi4/basis/def2-sv_p_-ri.gbs 

	 --------------------------------------------------------
	                          DF-MP2                         
	      2nd-Order Density-Fitted Moller-Plesset Theory     
	              RMP2 Wavefunction,   1 Threads             
	                                                         
	        Rob Parrish, Justin Turney, Andy Simmonett,      
	           Ed Hohenstein, and C. David Sherrill          
	 --------------------------------------------------------

   => Auxiliary Basis Set <=

  Basis Set: (DEF2-SV(P) AUX)
    Blend: DEF2-SV_P_-RI
    Number of shells: 132
    Number of basis function: 372
    Number of Cartesian functions: 420
    Spherical Harmonics?: true
    Max angular momentum: 3

	 --------------------------------------------------------
	                 NBF =    96, NAUX =   372
	 --------------------------------------------------------
	   CLASS    FOCC     OCC    AOCC    AVIR     VIR    FVIR
	   PAIRS       0      21      21      75      75       0
	 --------------------------------------------------------


         ------------------------------------------------------------
                                     CPHF                           
                                  Rob Parrish                       
         ------------------------------------------------------------

  ==> Geometry <==

    Molecular point group: cs
    Full point group: Cs

    Geometry (in Angstrom), charge = 0, multiplicity = 1:

       Center              X                  Y                   Z               Mass       
    ------------   -----------------  -----------------  -----------------  -----------------
           C          1.000000000000     0.999313031723     0.000000000000    12.000000000000
           C         -0.399064863677     1.000098883961     0.000000000000    12.000000000000
           C          1.699990040906    -0.211806029637     0.000000000000    12.000000000000
           H          1.540892689463     1.937186767534     0.000000000000     1.007825032070
           C         -1.099009959094    -0.211932826607     0.000000000000    12.000000000000
           H         -0.940107310537     1.937074376222     0.000000000000     1.007825032070
           C         -0.398955099812    -1.422901116039     0.000000000000    12.000000000000
           H         -2.181009959094    -0.211981842085     0.000000000000     1.007825032070
           C          1.000044900188    -1.422837740204     0.000000000000    12.000000000000
           H         -0.939912607651    -2.360925623778     0.000000000000     1.007825032070
           H          1.541087392349    -2.360813232466     0.000000000000     1.007825032070
           H          2.781990040906    -0.211757014159     0.000000000000     1.007825032070

  Nuclear repulsion =  203.022232108597024
  Reference energy  = -230.517508770550791

  ==> Basis Set <==

  Basis Set: DEF2-SV(P)
    Blend: DEF2-SV(P)
    Number of shells: 48
    Number of basis function: 96
    Number of Cartesian functions: 102
    Spherical Harmonics?: true
    Max angular momentum: 2

  ==> CGRSolver (by Rob Parrish) <==

   Number of roots    =         1
   Preconditioning    =    JACOBI
   Convergence cutoff =     1E-06
   Maximum iterations =       100

  ==> CPHFRHamiltonian (by Rob Parrish) <== 

  ==> DFJK: Density-Fitted J/K Matrices <==

    J tasked:                  Yes
    K tasked:                  Yes
    wK tasked:                  No
    OpenMP threads:              1
    Integrals threads:           1
    Memory (MB):              3576
    Algorithm:                Core
    Integral Cache:           NONE
    Schwarz Cutoff:          1E-12
    Fitting Condition:       1E-12

   => Auxiliary Basis Set <=

  Basis Set: (DEF2-SV(P) AUX)
    Blend: DEF2-SV_P_-JKFIT
    Number of shells: 186
    Number of basis function: 558
    Number of Cartesian functions: 654
    Spherical Harmonics?: true
    Max angular momentum: 4

  ==> CPHF Iterations <==

  => Iterations <=

             Iter  Converged  Remaining    Residual
  CGR           1          0          1   9.459E-02
  CGR           2          0          1   9.940E-03
  CGR           3          0          1   1.770E-03
  CGR           4          0          1   1.721E-04
  CGR           5          0          1   3.662E-05
  CGR           6          0          1   1.905E-05
  CGR           7          0          1   9.971E-06
  CGR           8          0          1   3.184E-06
  CGR           9          1          0   8.096E-07

    CGRSolver converged.

  ==> DFCorrGrad: Density-Fitted Correlated Gradients <==

    OpenMP threads:              1
    Integrals threads:           1
    Memory (MB):              3576
    Schwarz Cutoff:          0E+00
    Fitting Condition:       1E-12

   => Auxiliary Basis Set <=

  Basis Set: (DEF2-SV(P) AUX)
    Blend: DEF2-SV_P_-JKFIT
    Number of shells: 186
    Number of basis function: 558
    Number of Cartesian functions: 654
    Spherical Harmonics?: true
    Max angular momentum: 4

	-----------------------------------------------------------
	 ==================> DF-MP2 Energies <==================== 
	-----------------------------------------------------------
	 Reference Energy          =    -230.5175087705507906 [Eh]
	 Singles Energy            =      -0.0000000000000000 [Eh]
	 Same-Spin Energy          =      -0.2018120589042892 [Eh]
	 Opposite-Spin Energy      =      -0.5538133747904649 [Eh]
	 Correlation Energy        =      -0.7556254336947541 [Eh]
	 Total Energy              =    -231.2731342042455367 [Eh]
	-----------------------------------------------------------
	 ================> DF-SCS-MP2 Energies <================== 
	-----------------------------------------------------------
	 SCS Same-Spin Scale       =       0.3333333333333333 [-]
	 SCS Opposite-Spin Scale   =       1.2000000000000000 [-]
	 SCS Same-Spin Energy      =      -0.0672706863014297 [Eh]
	 SCS Opposite-Spin Energy  =      -0.6645760497485579 [Eh]
	 SCS Correlation Energy    =      -0.7318467360499876 [Eh]
	 SCS Total Energy          =    -231.2493555066007787 [Eh]
	-----------------------------------------------------------


  -Total Gradient:
     Atom            X                  Y                   Z
    ------   -----------------  -----------------  -----------------
       1        0.004442990887     0.007101225508    -0.000000000000
       2       -0.004412517747     0.008542608703     0.000000000000
       3        0.009258381611    -0.000029175873    -0.000000000000
       4       -0.004858598034    -0.008331858224     0.000000000000
       5       -0.009451232450    -0.000591260680     0.000000000000
       6        0.005015975882    -0.008795353066    -0.000000000000
       7       -0.004263510036    -0.007216114914    -0.000000000000
       8        0.010105093673     0.000007497141     0.000000000000
       9        0.004254775910    -0.007155488697     0.000000000000
      10        0.004754395165     0.008233492327    -0.000000000000
      11       -0.004752028366     0.008238594272     0.000000000000
      12       -0.010093726495    -0.000004166496     0.000000000000


*** tstop() called on c-16-38.local at Tue Oct  9 16:53:53 2018
Module time:
	user time   =      16.35 seconds =       0.27 minutes
	system time =       0.44 seconds =       0.01 minutes
	total time  =         18 seconds =       0.30 minutes
Total time:
	user time   =      49.40 seconds =       0.82 minutes
	system time =       1.49 seconds =       0.02 minutes
	total time  =         54 seconds =       0.90 minutes

  //>>>>>>>>>>>>>>>>>>>>>>>>>>>>>>>>>>>//
  //    Loading displacement 4 of 52   //
  //<<<<<<<<<<<<<<<<<<<<<<<<<<<<<<<<<<<//
gradient() will perform analytic gradient computation.

*** tstart() called on c-16-38.local
*** at Tue Oct  9 16:53:53 2018

    SCF Algorithm Type (re)set to DF.

*** tstart() called on c-16-38.local
*** at Tue Oct  9 16:53:53 2018

   => Loading Basis Set <=

    Name: DEF2-SV(P)
    Role: ORBITAL
    Keyword: BASIS
    atoms 1-3, 5, 7, 9   entry C          line    87 file /beegfs/DATA/mobley/limvt/local/miniconda3/envs/oepython3/share/psi4/basis/def2-sv_p_.gbs 
    atoms 4, 6, 8, 10-12 entry H          line    14 file /beegfs/DATA/mobley/limvt/local/miniconda3/envs/oepython3/share/psi4/basis/def2-sv_p_.gbs 


         ---------------------------------------------------------
                                   SCF
            by Justin Turney, Rob Parrish, and Andy Simmonett
                              RHF Reference
                        1 Threads,   4768 MiB Core
         ---------------------------------------------------------

  ==> Geometry <==

    Molecular point group: cs
    Full point group: Cs

    Geometry (in Angstrom), charge = 0, multiplicity = 1:

       Center              X                  Y                   Z               Mass       
    ------------   -----------------  -----------------  -----------------  -----------------
           C          1.000000000000     1.000686968277     0.000000000000    12.000000000000
           C         -0.398935136323     0.999901116039     0.000000000000    12.000000000000
           C          1.700009959094    -0.212193970363     0.000000000000    12.000000000000
           H          1.541107310537     1.936813232466     0.000000000000     1.007825032070
           C         -1.098990040906    -0.212067173393     0.000000000000    12.000000000000
           H         -0.939892689463     1.936925623778     0.000000000000     1.007825032070
           C         -0.399044900188    -1.423098883961     0.000000000000    12.000000000000
           H         -2.180990040906    -0.212018157915     0.000000000000     1.007825032070
           C          0.999955099812    -1.423162259796     0.000000000000    12.000000000000
           H         -0.940087392349    -2.361074376222     0.000000000000     1.007825032070
           H          1.540912607651    -2.361186767534     0.000000000000     1.007825032070
           H          2.782009959094    -0.212242985841     0.000000000000     1.007825032070

  Running in cs symmetry.

  Rotational constants: A =      0.18919  B =      0.16918  C =      0.08931 [cm^-1]
  Rotational constants: A =   5671.80703  B =   5071.94500  C =   2677.56490 [MHz]
  Nuclear repulsion =  203.000016472629483

  Charge       = 0
  Multiplicity = 1
  Electrons    = 42
  Nalpha       = 21
  Nbeta        = 21

  ==> Algorithm <==

  SCF Algorithm Type is DF.
  DIIS enabled.
  MOM disabled.
  Fractional occupation disabled.
  Guess Type is SAD.
  Energy threshold   = 1.00e-10
  Density threshold  = 1.00e-10
  Integral threshold = 0.00e+00

  ==> Primary Basis <==

  Basis Set: DEF2-SV(P)
    Blend: DEF2-SV(P)
    Number of shells: 48
    Number of basis function: 96
    Number of Cartesian functions: 102
    Spherical Harmonics?: true
    Max angular momentum: 2

   => Loading Basis Set <=

    Name: (DEF2-SV(P) AUX)
    Role: JKFIT
    Keyword: DF_BASIS_SCF
    atoms 1-3, 5, 7, 9   entry C          line   202 file /beegfs/DATA/mobley/limvt/local/miniconda3/envs/oepython3/share/psi4/basis/def2-sv_p_-jkfit.gbs 
    atoms 4, 6, 8, 10-12 entry H          line    22 file /beegfs/DATA/mobley/limvt/local/miniconda3/envs/oepython3/share/psi4/basis/def2-sv_p_-jkfit.gbs 

  ==> Pre-Iterations <==

   -------------------------------------------------------
    Irrep   Nso     Nmo     Nalpha   Nbeta   Ndocc  Nsocc
   -------------------------------------------------------
     A'        72      72       0       0       0       0
     A"        24      24       0       0       0       0
   -------------------------------------------------------
    Total      96      96      21      21      21       0
   -------------------------------------------------------

  ==> Integral Setup <==

  ==> DFJK: Density-Fitted J/K Matrices <==

    J tasked:                  Yes
    K tasked:                  Yes
    wK tasked:                  No
    OpenMP threads:              1
    Integrals threads:           1
    Memory (MB):              3576
    Algorithm:                Core
    Integral Cache:           NONE
    Schwarz Cutoff:          1E-12
    Fitting Condition:       1E-12

   => Auxiliary Basis Set <=

  Basis Set: (DEF2-SV(P) AUX)
    Blend: DEF2-SV_P_-JKFIT
    Number of shells: 186
    Number of basis function: 558
    Number of Cartesian functions: 654
    Spherical Harmonics?: true
    Max angular momentum: 4

  Minimum eigenvalue in the overlap matrix is 3.2940556577E-04.
  Using Symmetric Orthogonalization.

  SCF Guess: Superposition of Atomic Densities via on-the-fly atomic UHF.

  ==> Iterations <==

                           Total Energy        Delta E     RMS |[F,P]|

   @DF-RHF iter   0:  -232.53227359886910   -2.32532e+02   5.81008e-02 
   @DF-RHF iter   1:  -230.37716429408960    2.15511e+00   5.43600e-03 
   @DF-RHF iter   2:  -230.50441873556468   -1.27254e-01   1.64999e-03 DIIS
   @DF-RHF iter   3:  -230.51584259843128   -1.14239e-02   6.55072e-04 DIIS
   @DF-RHF iter   4:  -230.51743535447628   -1.59276e-03   9.39338e-05 DIIS
   @DF-RHF iter   5:  -230.51747616655604   -4.08121e-05   2.45229e-05 DIIS
   @DF-RHF iter   6:  -230.51747881909901   -2.65254e-06   6.74731e-06 DIIS
   @DF-RHF iter   7:  -230.51747906193958   -2.42841e-07   9.36843e-07 DIIS
   @DF-RHF iter   8:  -230.51747906899951   -7.05992e-09   1.71484e-07 DIIS
   @DF-RHF iter   9:  -230.51747906922139   -2.21888e-10   5.21805e-08 DIIS
   @DF-RHF iter  10:  -230.51747906923720   -1.58025e-11   2.26337e-08 DIIS
   @DF-RHF iter  11:  -230.51747906924098   -3.78009e-12   7.74282e-09 DIIS
   @DF-RHF iter  12:  -230.51747906924192   -9.37916e-13   3.71864e-09 DIIS
   @DF-RHF iter  13:  -230.51747906924223   -3.12639e-13   1.48043e-09 DIIS
   @DF-RHF iter  14:  -230.51747906924248   -2.55795e-13   3.51379e-10 DIIS
   @DF-RHF iter  15:  -230.51747906924172    7.67386e-13   8.59392e-11 DIIS

  ==> Post-Iterations <==

    Orbital Energies (a.u.)
    -----------------------

    Doubly Occupied:                                                      

       1Ap   -11.238299     2Ap   -11.237794     3Ap   -11.237769  
       4Ap   -11.236668     5Ap   -11.236639     6Ap   -11.236133  
       7Ap    -1.137843     8Ap    -1.003206     9Ap    -1.003127  
      10Ap    -0.817615    11Ap    -0.817398    12Ap    -0.710115  
      13Ap    -0.641167    14Ap    -0.622169    15Ap    -0.590902  
      16Ap    -0.590828     1App   -0.501513    17Ap    -0.499002  
      18Ap    -0.498629     2App   -0.337580     3App   -0.337448  

    Virtual:                                                              

       4App    0.132179     5App    0.132387    19Ap     0.182648  
      20Ap     0.222473    21Ap     0.222502    22Ap     0.259695  
      23Ap     0.259726    24Ap     0.281304     6App    0.346901  
      25Ap     0.454029    26Ap     0.454131    27Ap     0.470198  
      28Ap     0.470435    29Ap     0.528391    30Ap     0.592655  
      31Ap     0.593447    32Ap     0.593492    33Ap     0.622438  
      34Ap     0.662862     7App    0.689066    35Ap     0.711111  
      36Ap     0.711288    37Ap     0.740306     8App    0.758056  
       9App    0.758147    10App    0.837261    11App    0.837354  
      12App    0.916099    38Ap     0.918477    39Ap     0.918724  
      40Ap     0.932306    41Ap     0.932349    42Ap     0.980735  
      43Ap     0.980867    44Ap     0.997123    45Ap     1.013736  
      46Ap     1.026636    47Ap     1.027068    48Ap     1.104502  
      49Ap     1.178234    50Ap     1.268139    51Ap     1.268231  
      13App    1.506466    52Ap     1.513005    53Ap     1.513197  
      14App    1.652970    15App    1.752181    16App    1.752470  
      54Ap     1.771642    17App    1.784583    18App    1.784721  
      55Ap     2.020237    56Ap     2.041707    57Ap     2.074538  
      58Ap     2.184264    59Ap     2.184330    60Ap     2.305523  
      61Ap     2.305647    62Ap     2.385939    63Ap     2.386198  
      19App    2.443157    20App    2.443258    21App    2.614481  
      22App    2.619183    23App    2.620109    64Ap     2.760240  
      65Ap     2.760398    66Ap     2.835137    24App    2.982235  
      67Ap     3.026018    68Ap     3.026557    69Ap     3.047869  
      70Ap     3.048364    71Ap     3.335009    72Ap     3.727604  

    Final Occupation by Irrep:
             Ap   App 
    DOCC [    18,    3 ]

  Energy converged.

  @DF-RHF Final Energy:  -230.51747906924172

   => Energetics <=

    Nuclear Repulsion Energy =            203.0000164726294827
    One-Electron Energy =                -711.9713057872779700
    Two-Electron Energy =                 278.4538102454067712
    DFT Exchange-Correlation Energy =       0.0000000000000000
    Empirical Dispersion Energy =           0.0000000000000000
    PCM Polarization Energy =               0.0000000000000000
    EFP Energy =                            0.0000000000000000
    Total Energy =                       -230.5174790692417446



Properties will be evaluated at   0.000000,   0.000000,   0.000000 Bohr

Properties computed using the SCF density matrix

  Nuclear Dipole Moment: (a.u.)
     X:    23.8503      Y:   -16.8042      Z:     0.0000

  Electronic Dipole Moment: (a.u.)
     X:   -23.8501      Y:    16.8046      Z:     0.0000

  Dipole Moment: (a.u.)
     X:     0.0002      Y:     0.0004      Z:     0.0000     Total:     0.0004

  Dipole Moment: (Debye)
     X:     0.0004      Y:     0.0010      Z:     0.0000     Total:     0.0011


*** tstop() called on c-16-38.local at Tue Oct  9 16:53:58 2018
Module time:
	user time   =       4.53 seconds =       0.08 minutes
	system time =       0.06 seconds =       0.00 minutes
	total time  =          5 seconds =       0.08 minutes
Total time:
	user time   =      53.95 seconds =       0.90 minutes
	system time =       1.55 seconds =       0.03 minutes
	total time  =         59 seconds =       0.98 minutes

  //>>>>>>>>>>>>>>>>>>>>>>>>>>>>>>>>>>>//
  //               DFMP2               //
  //<<<<<<<<<<<<<<<<<<<<<<<<<<<<<<<<<<<//

   => Loading Basis Set <=

    Name: (DEF2-SV(P) AUX)
    Role: RIFIT
    Keyword: DF_BASIS_MP2
    atoms 1-3, 5, 7, 9   entry C          line   152 file /beegfs/DATA/mobley/limvt/local/miniconda3/envs/oepython3/share/psi4/basis/def2-sv_p_-ri.gbs 
    atoms 4, 6, 8, 10-12 entry H          line    21 file /beegfs/DATA/mobley/limvt/local/miniconda3/envs/oepython3/share/psi4/basis/def2-sv_p_-ri.gbs 

	 --------------------------------------------------------
	                          DF-MP2                         
	      2nd-Order Density-Fitted Moller-Plesset Theory     
	              RMP2 Wavefunction,   1 Threads             
	                                                         
	        Rob Parrish, Justin Turney, Andy Simmonett,      
	           Ed Hohenstein, and C. David Sherrill          
	 --------------------------------------------------------

   => Auxiliary Basis Set <=

  Basis Set: (DEF2-SV(P) AUX)
    Blend: DEF2-SV_P_-RI
    Number of shells: 132
    Number of basis function: 372
    Number of Cartesian functions: 420
    Spherical Harmonics?: true
    Max angular momentum: 3

	 --------------------------------------------------------
	                 NBF =    96, NAUX =   372
	 --------------------------------------------------------
	   CLASS    FOCC     OCC    AOCC    AVIR     VIR    FVIR
	   PAIRS       0      21      21      75      75       0
	 --------------------------------------------------------


         ------------------------------------------------------------
                                     CPHF                           
                                  Rob Parrish                       
         ------------------------------------------------------------

  ==> Geometry <==

    Molecular point group: cs
    Full point group: Cs

    Geometry (in Angstrom), charge = 0, multiplicity = 1:

       Center              X                  Y                   Z               Mass       
    ------------   -----------------  -----------------  -----------------  -----------------
           C          1.000000000000     1.000686968277     0.000000000000    12.000000000000
           C         -0.398935136323     0.999901116039     0.000000000000    12.000000000000
           C          1.700009959094    -0.212193970363     0.000000000000    12.000000000000
           H          1.541107310537     1.936813232466     0.000000000000     1.007825032070
           C         -1.098990040906    -0.212067173393     0.000000000000    12.000000000000
           H         -0.939892689463     1.936925623778     0.000000000000     1.007825032070
           C         -0.399044900188    -1.423098883961     0.000000000000    12.000000000000
           H         -2.180990040906    -0.212018157915     0.000000000000     1.007825032070
           C          0.999955099812    -1.423162259796     0.000000000000    12.000000000000
           H         -0.940087392349    -2.361074376222     0.000000000000     1.007825032070
           H          1.540912607651    -2.361186767534     0.000000000000     1.007825032070
           H          2.782009959094    -0.212242985841     0.000000000000     1.007825032070

  Nuclear repulsion =  203.000016472629483
  Reference energy  = -230.517479069241716

  ==> Basis Set <==

  Basis Set: DEF2-SV(P)
    Blend: DEF2-SV(P)
    Number of shells: 48
    Number of basis function: 96
    Number of Cartesian functions: 102
    Spherical Harmonics?: true
    Max angular momentum: 2

  ==> CGRSolver (by Rob Parrish) <==

   Number of roots    =         1
   Preconditioning    =    JACOBI
   Convergence cutoff =     1E-06
   Maximum iterations =       100

  ==> CPHFRHamiltonian (by Rob Parrish) <== 

  ==> DFJK: Density-Fitted J/K Matrices <==

    J tasked:                  Yes
    K tasked:                  Yes
    wK tasked:                  No
    OpenMP threads:              1
    Integrals threads:           1
    Memory (MB):              3576
    Algorithm:                Core
    Integral Cache:           NONE
    Schwarz Cutoff:          1E-12
    Fitting Condition:       1E-12

   => Auxiliary Basis Set <=

  Basis Set: (DEF2-SV(P) AUX)
    Blend: DEF2-SV_P_-JKFIT
    Number of shells: 186
    Number of basis function: 558
    Number of Cartesian functions: 654
    Spherical Harmonics?: true
    Max angular momentum: 4

  ==> CPHF Iterations <==

  => Iterations <=

             Iter  Converged  Remaining    Residual
  CGR           1          0          1   9.457E-02
  CGR           2          0          1   9.940E-03
  CGR           3          0          1   1.776E-03
  CGR           4          0          1   1.864E-04
  CGR           5          0          1   7.206E-05
  CGR           6          0          1   4.337E-05
  CGR           7          0          1   1.296E-05
  CGR           8          0          1   2.750E-06
  CGR           9          1          0   7.863E-07

    CGRSolver converged.

  ==> DFCorrGrad: Density-Fitted Correlated Gradients <==

    OpenMP threads:              1
    Integrals threads:           1
    Memory (MB):              3576
    Schwarz Cutoff:          0E+00
    Fitting Condition:       1E-12

   => Auxiliary Basis Set <=

  Basis Set: (DEF2-SV(P) AUX)
    Blend: DEF2-SV_P_-JKFIT
    Number of shells: 186
    Number of basis function: 558
    Number of Cartesian functions: 654
    Spherical Harmonics?: true
    Max angular momentum: 4

	-----------------------------------------------------------
	 ==================> DF-MP2 Energies <==================== 
	-----------------------------------------------------------
	 Reference Energy          =    -230.5174790692417162 [Eh]
	 Singles Energy            =      -0.0000000000000000 [Eh]
	 Same-Spin Energy          =      -0.2018098680962423 [Eh]
	 Opposite-Spin Energy      =      -0.5538195949818516 [Eh]
	 Correlation Energy        =      -0.7556294630780939 [Eh]
	 Total Energy              =    -231.2731085323198101 [Eh]
	-----------------------------------------------------------
	 ================> DF-SCS-MP2 Energies <================== 
	-----------------------------------------------------------
	 SCS Same-Spin Scale       =       0.3333333333333333 [-]
	 SCS Opposite-Spin Scale   =       1.2000000000000000 [-]
	 SCS Same-Spin Energy      =      -0.0672699560320807 [Eh]
	 SCS Opposite-Spin Energy  =      -0.6645835139782219 [Eh]
	 SCS Correlation Energy    =      -0.7318534700103027 [Eh]
	 SCS Total Energy          =    -231.2493325392520092 [Eh]
	-----------------------------------------------------------


  -Total Gradient:
     Atom            X                  Y                   Z
    ------   -----------------  -----------------  -----------------
       1        0.004375854489     0.009569385640     0.000000000000
       2       -0.004403382459     0.008128781869    -0.000000000000
       3        0.009730637997    -0.001051006242    -0.000000000000
       4       -0.005269670249    -0.009245300642    -0.000000000000
       5       -0.009539362437    -0.000491154109    -0.000000000000
       6        0.005110943941    -0.008780192857     0.000000000000
       7       -0.004182537158    -0.007264883823    -0.000000000000
       8        0.010094933063    -0.000007349314     0.000000000000
       9        0.004191299430    -0.007325375718     0.000000000000
      10        0.004759280881     0.008233925844    -0.000000000000
      11       -0.004761655017     0.008228848210     0.000000000000
      12       -0.010106342481     0.000004321143     0.000000000000


*** tstop() called on c-16-38.local at Tue Oct  9 16:54:12 2018
Module time:
	user time   =      16.38 seconds =       0.27 minutes
	system time =       0.48 seconds =       0.01 minutes
	total time  =         19 seconds =       0.32 minutes
Total time:
	user time   =      65.80 seconds =       1.10 minutes
	system time =       1.97 seconds =       0.03 minutes
	total time  =         73 seconds =       1.22 minutes

  //>>>>>>>>>>>>>>>>>>>>>>>>>>>>>>>>>>>//
  //    Loading displacement 5 of 52   //
  //<<<<<<<<<<<<<<<<<<<<<<<<<<<<<<<<<<<//
gradient() will perform analytic gradient computation.

*** tstart() called on c-16-38.local
*** at Tue Oct  9 16:54:12 2018

    SCF Algorithm Type (re)set to DF.

*** tstart() called on c-16-38.local
*** at Tue Oct  9 16:54:12 2018

   => Loading Basis Set <=

    Name: DEF2-SV(P)
    Role: ORBITAL
    Keyword: BASIS
    atoms 1-3, 5, 7, 9   entry C          line    87 file /beegfs/DATA/mobley/limvt/local/miniconda3/envs/oepython3/share/psi4/basis/def2-sv_p_.gbs 
    atoms 4, 6, 8, 10-12 entry H          line    14 file /beegfs/DATA/mobley/limvt/local/miniconda3/envs/oepython3/share/psi4/basis/def2-sv_p_.gbs 


         ---------------------------------------------------------
                                   SCF
            by Justin Turney, Rob Parrish, and Andy Simmonett
                              RHF Reference
                        1 Threads,   4768 MiB Core
         ---------------------------------------------------------

  ==> Geometry <==

    Molecular point group: cs
    Full point group: Cs

    Geometry (in Angstrom), charge = 0, multiplicity = 1:

       Center              X                  Y                   Z               Mass       
    ------------   -----------------  -----------------  -----------------  -----------------
           C          1.000000000000     1.000000000000     0.000000000000    12.000000000000
           C         -0.399618044234     1.000061719387     0.000000000000    12.000000000000
           C          1.700195206717    -0.212164603200     0.000000000000    12.000000000000
           H          1.541426920504     1.936852540817     0.000000000000     1.007825032070
           C         -1.098804793283    -0.211862803810     0.000000000000    12.000000000000
           H         -0.939573079496     1.937120052174     0.000000000000     1.007825032070
           C         -0.398935368154    -1.422938280613     0.000000000000    12.000000000000
           H         -2.180804793283    -0.211746138236     0.000000000000     1.007825032070
           C          1.000064631846    -1.423089126396     0.000000000000    12.000000000000
           H         -0.940036507070    -2.360879947826     0.000000000000     1.007825032070
           H          1.540963492930    -2.361147459183     0.000000000000     1.007825032070
           H          2.782195206717    -0.212281268774     0.000000000000     1.007825032070

  Running in cs symmetry.

  Rotational constants: A =      0.18926  B =      0.16914  C =      0.08932 [cm^-1]
  Rotational constants: A =   5673.94020  B =   5070.78167  C =   2677.71584 [MHz]
  Nuclear repulsion =  203.005017150082438

  Charge       = 0
  Multiplicity = 1
  Electrons    = 42
  Nalpha       = 21
  Nbeta        = 21

  ==> Algorithm <==

  SCF Algorithm Type is DF.
  DIIS enabled.
  MOM disabled.
  Fractional occupation disabled.
[...]
   14     0.00138279825627     0.00000000000000    -0.00103237314644     0.71162688474530     0.00000000000000
   15     0.00000000000000     0.00826106991363     0.00000000000000     0.00000000000000     0.09540773594062
   16    -0.00028664246390     0.00000000000000     0.01158094069365    -0.01650085332849     0.00000000000000
   17     0.00066262556111     0.00000000000000     0.01693894943089    -0.01640729646123     0.00000000000000
   18     0.00000000000000    -0.00359001761029     0.00000000000000     0.00000000000000     0.00068446818582
   19     0.00144299314552     0.00000000000000    -0.18935661791170     0.08283215628191     0.00000000000000
   20     0.00030185979891     0.00000000000000     0.13379969311244    -0.31401198415312     0.00000000000000
   21     0.00000000000000    -0.00237462632412     0.00000000000000     0.00000000000000    -0.03675184563835
   22     0.00024197928244     0.00000000000000    -0.37507798411691     0.00001342109388     0.00000000000000
   23     0.00004631749659     0.00000000000000    -0.00001048081132    -0.05555336552037     0.00000000000000
   24     0.00000000000000     0.00006815922139     0.00000000000000     0.00000000000000    -0.02737255869633
   25     0.00389932552274     0.00000000000000    -0.02565448902852     0.06163310840145     0.00000000000000
   26    -0.00329121478146     0.00000000000000     0.02940673772800     0.02693337967623     0.00000000000000
   27     0.00000000000000     0.00822723121621     0.00000000000000     0.00000000000000    -0.01074340747828
   28     0.00000575748928     0.00000000000000     0.01156668920355     0.01652257217660     0.00000000000000
   29     0.00000099367724     0.00000000000000    -0.01692169329821    -0.01645252916471     0.00000000000000
   30     0.00000000000000    -0.00155036285208     0.00000000000000     0.00000000000000     0.00065432397641
   31    -0.00075815893274     0.00000000000000    -0.00583573666645    -0.00117541745264     0.00000000000000
   32    -0.00087480946532     0.00000000000000    -0.00042771861342     0.00142498857508     0.00000000000000
   33     0.00000000000000     0.00007248111154     0.00000000000000     0.00000000000000     0.00825924076230
   34    -0.00006220506395     0.00000000000000     0.00111485183337    -0.00000089635813     0.00000000000000
   35     0.00122501438590     0.00000000000000    -0.00000038840902    -0.00211998903427     0.00000000000000
   36     0.00000000000000    -0.00357287084833     0.00000000000000     0.00000000000000    -0.00235005404829

                16                  17                  18                  19                  20

    1    -0.00924030599139    -0.00450301163665     0.00000000000000    -0.03861039808816     0.02187231587980
    2     0.02895289540906     0.00439119057591     0.00000000000000     0.02191147641514    -0.01330331226052
    3     0.00000000000000     0.00000000000000     0.00068526882771     0.00000000000000     0.00000000000000
    4    -0.13543457243908     0.13839980284714     0.00000000000000     0.05319176174486    -0.01610381830144
    5     0.13838027351892    -0.29522706867654     0.00000000000000     0.01608565814871    -0.05191756057188
    6     0.00000000000000     0.00000000000000    -0.02737135803006     0.00000000000000     0.00000000000000
    7    -0.00582854937282    -0.00043057812870     0.00000000000000    -0.02566842640183    -0.02937251085535
    8    -0.00120388326784     0.00140780250813     0.00000000000000    -0.06163369029486     0.02693127661877
    9     0.00000000000000     0.00000000000000     0.00826102990998     0.00000000000000     0.00000000000000
   10     0.00142496729564     0.00027631771936     0.00000000000000    -0.00129861565574     0.00139977249404
   11    -0.00028664246390     0.00066262556111     0.00000000000000     0.00144299314552     0.00030185979891
   12     0.00000000000000     0.00000000000000    -0.00359001761029     0.00000000000000     0.00000000000000
   13     0.01158094069365     0.01693894943089     0.00000000000000    -0.18935661791170     0.13379969311244
   14    -0.01650085332849    -0.01640729646123     0.00000000000000     0.08283215628191    -0.31401198415312
   15     0.00000000000000     0.00000000000000     0.00068446818582     0.00000000000000     0.00000000000000
   16     0.13931642410260    -0.14592765020588     0.00000000000000    -0.00113216236504    -0.00313464330975
   17    -0.14592765020588     0.30780230804186     0.00000000000000    -0.00392278068416    -0.00336624038673
   18     0.00000000000000     0.00000000000000     0.02046066400403     0.00000000000000     0.00000000000000
   19    -0.00113216236504    -0.00392278068416     0.00000000000000     0.73240555637838     0.03323251837143
   20    -0.00313464330975    -0.00336624038673     0.00000000000000     0.03323251837143     0.77157667899507
   21     0.00000000000000     0.00000000000000     0.00822727071027     0.00000000000000     0.00000000000000
   22     0.00083607173199     0.00007919858394     0.00000000000000    -0.00959309113284    -0.00472467185880
   23     0.00060937910760     0.00123881548348     0.00000000000000     0.02873141739860     0.00477777636894
   24     0.00000000000000     0.00000000000000    -0.00357285431140     0.00000000000000     0.00000000000000
   25    -0.00130557715363    -0.00143072007898     0.00000000000000    -0.37597298861324    -0.02549538972402
   26    -0.00141769323911     0.00033847064345     0.00000000000000     0.02548225801763    -0.12671343088032
   27     0.00000000000000     0.00000000000000    -0.00237472725790     0.00000000000000     0.00000000000000
   28     0.00033822933533     0.00075803831920     0.00000000000000    -0.13499586352370    -0.13732978953093
   29    -0.00075687600994    -0.00085103867388     0.00000000000000    -0.13733952019142    -0.29391046495633
   30     0.00000000000000     0.00000000000000     0.00007248660005     0.00000000000000     0.00000000000000
   31     0.00000070573557    -0.00000364038985     0.00000000000000    -0.00927323288545     0.02896544098410
   32     0.00001489630665    -0.00002637773683     0.00000000000000    -0.00448873045102     0.00437045206267
   33     0.00000000000000     0.00000000000000    -0.00155036055720     0.00000000000000     0.00000000000000
   34    -0.00055617157281    -0.00023392577631     0.00000000000000     0.00030407845447    -0.00310891726151
   35     0.00127079748267     0.00003680912127     0.00000000000000    -0.00233375615747    -0.00473505063547
   36     0.00000000000000     0.00000000000000     0.00006812952898     0.00000000000000     0.00000000000000

                21                  22                  23                  24                  25

    1     0.00000000000000     0.00031151426061    -0.00233524812053     0.00000000000000     0.05320969921291
    2     0.00000000000000    -0.00310726528164    -0.00474136613821     0.00000000000000    -0.01608362175463
    3     0.01135713700231     0.00000000000000     0.00000000000000     0.00823212610542     0.00000000000000
    4     0.00000000000000    -0.00958522455967    -0.02871852284459     0.00000000000000    -0.03857926882847
    5     0.00000000000000     0.00471231986735     0.00477248917397     0.00000000000000    -0.02191054482530
    6    -0.01066874989113     0.00000000000000     0.00000000000000     0.00067236205552     0.00000000000000
    7     0.00000000000000     0.00111385461035     0.00000334038688     0.00000000000000    -0.18935842589869
    8     0.00000000000000     0.00000028872778    -0.00211939071203     0.00000000000000    -0.08280992689434
    9    -0.01074297062100     0.00000000000000     0.00000000000000    -0.00234986133161     0.00000000000000
   10     0.00000000000000    -0.00055034116521    -0.00126331897427     0.00000000000000    -0.00114688189386
   11     0.00000000000000     0.00024197928244     0.00004631749659     0.00000000000000     0.00389932552274
   12    -0.00237462632412     0.00000000000000     0.00000000000000     0.00006815922139     0.00000000000000
   13     0.00000000000000    -0.37507798411691    -0.00001048081132     0.00000000000000    -0.02565448902852
   14     0.00000000000000     0.00001342109388    -0.05555336552037     0.00000000000000     0.06163310840145
   15    -0.03675184563835     0.00000000000000     0.00000000000000    -0.02737255869633     0.00000000000000
   16     0.00000000000000     0.00083607173199     0.00060937910760     0.00000000000000    -0.00130557715363
   17     0.00000000000000     0.00007919858394     0.00123881548348     0.00000000000000    -0.00143072007898
   18     0.00822727071027     0.00000000000000     0.00000000000000    -0.00357285431140     0.00000000000000
   19     0.00000000000000    -0.00959309113284     0.02873141739860     0.00000000000000    -0.37597298861324
   20     0.00000000000000    -0.00472467185880     0.00477777636894     0.00000000000000    -0.02549538972402
   21     0.09571818349202     0.00000000000000     0.00000000000000     0.00068225025490     0.00000000000000
   22     0.00000000000000     0.39196048084104    -0.00000177461590     0.00000000000000     0.00031752408091
   23     0.00000000000000    -0.00000177461590     0.05504203111696     0.00000000000000     0.00231964023718
   24     0.00068225025490     0.00000000000000     0.00000000000000     0.02046654676042     0.00000000000000
   25     0.00000000000000     0.00031752408091     0.00231964023718     0.00000000000000     0.73236603968769
   26     0.00000000000000     0.00306274762882    -0.00473216333689     0.00000000000000    -0.03322716516446
   27    -0.03665630479033     0.00000000000000     0.00000000000000     0.00825117403206     0.00000000000000
   28     0.00000000000000     0.00082888164868    -0.00060225943653     0.00000000000000    -0.00926964968854
   29     0.00000000000000    -0.00007069075734     0.00123190522381     0.00000000000000     0.00448432141886
   30    -0.02769196570151     0.00000000000000     0.00000000000000    -0.00358899053716     0.00000000000000
   31     0.00000000000000    -0.00054836139848     0.00126981988688     0.00000000000000    -0.13500273366767
   32     0.00000000000000    -0.00021039832057     0.00004111977136     0.00000000000000     0.13734431225845
   33     0.00065042212628     0.00000000000000     0.00000000000000     0.00007213297137     0.00000000000000
   34     0.00000000000000    -0.00001332480047    -0.00000199221400     0.00000000000000    -0.00960324820888
   35     0.00000000000000     0.00000484565003    -0.00000416892761     0.00000000000000    -0.02872333939696
   36     0.00825119938065     0.00000000000000     0.00000000000000    -0.00156048652458     0.00000000000000

                26                  27                  28                  29                  30

    1     0.01609675821370     0.00000000000000    -0.00128878424434     0.00138617001119     0.00000000000000
    2    -0.05191583978510     0.00000000000000     0.00139027047379     0.00031221825106     0.00000000000000
    3     0.00000000000000    -0.01066844204741     0.00000000000000     0.00000000000000    -0.00229299073104
    4    -0.02187499377193     0.00000000000000    -0.00108977363708     0.00391743687537     0.00000000000000
    5    -0.01330050767817     0.00000000000000     0.00316988081012    -0.00332376987203     0.00000000000000
    6     0.00000000000000     0.01135749505272     0.00000000000000     0.00000000000000     0.00827907045055
    7    -0.13378962819215     0.00000000000000    -0.00583647152455     0.00042989360397     0.00000000000000
    8    -0.31401891795179     0.00000000000000     0.00117779167112     0.00142197440448     0.00000000000000
    9     0.00000000000000    -0.03675210296892     0.00000000000000     0.00000000000000     0.00825903013371
   10     0.00316241459278     0.00000000000000     0.00000085468932     0.00000176689370     0.00000000000000
   11    -0.00329121478146     0.00000000000000     0.00000575748928     0.00000099367724     0.00000000000000
   12     0.00000000000000     0.00822723121621     0.00000000000000     0.00000000000000    -0.00155036285208
   13     0.02940673772800     0.00000000000000     0.01156668920355    -0.01692169329821     0.00000000000000
   14     0.02693337967623     0.00000000000000     0.01652257217660    -0.01645252916471     0.00000000000000
   15     0.00000000000000    -0.01074340747828     0.00000000000000     0.00000000000000     0.00065432397641
   16    -0.00141769323911     0.00000000000000     0.00033822933533    -0.00075687600994     0.00000000000000
   17     0.00033847064345     0.00000000000000     0.00075803831920    -0.00085103867388     0.00000000000000
   18     0.00000000000000    -0.00237472725790     0.00000000000000     0.00000000000000     0.00007248660005
   19     0.02548225801763     0.00000000000000    -0.13499586352370    -0.13733952019142     0.00000000000000
   20    -0.12671343088032     0.00000000000000    -0.13732978953093    -0.29391046495633     0.00000000000000
   21     0.00000000000000    -0.03665630479033     0.00000000000000     0.00000000000000    -0.02769196570151
   22     0.00306274762882     0.00000000000000     0.00082888164868    -0.00007069075734     0.00000000000000
   23    -0.00473216333689     0.00000000000000    -0.00060225943653     0.00123190522381     0.00000000000000
   24     0.00000000000000     0.00825117403206     0.00000000000000     0.00000000000000    -0.00358899053716
   25    -0.03322716516446     0.00000000000000    -0.00926964968854     0.00448432141886     0.00000000000000
   26     0.77148534814886     0.00000000000000    -0.02895449639247     0.00435269903981     0.00000000000000
   27     0.00000000000000     0.09571793747121     0.00000000000000     0.00000000000000     0.00065074917245
   28    -0.02895449639247     0.00000000000000     0.13886563164851     0.14488462130648     0.00000000000000
   29     0.00435269903981     0.00000000000000     0.14488462130648     0.30651373081499     0.00000000000000
   30     0.00000000000000     0.00065074917245     0.00000000000000     0.00000000000000     0.02071878554975
   31     0.13733660189367     0.00000000000000     0.00142572828497    -0.00025672185321     0.00000000000000
   32    -0.29391703025848     0.00000000000000     0.00025644884393     0.00066370425997     0.00000000000000
   33     0.00000000000000    -0.02769191898524     0.00000000000000     0.00000000000000    -0.00358240315276
   34     0.00471645868552     0.00000000000000    -0.00054547219216     0.00024129200055     0.00000000000000
   35     0.00477920716387     0.00000000000000    -0.00127883573059     0.00004057699559     0.00000000000000
   36     0.00000000000000     0.00068231658344     0.00000000000000     0.00000000000000     0.00007226709164

                31                  32                  33                  34                  35

    1    -0.00109233575356    -0.00391830026582     0.00000000000000    -0.00959014185742     0.02872371080158
    2    -0.00316197803566    -0.00332431157230     0.00000000000000    -0.00470807274334     0.00477161996112
    3     0.00000000000000     0.00000000000000     0.00827919808611     0.00000000000000     0.00000000000000
    4    -0.00128643630712    -0.00138798893363     0.00000000000000     0.00030424773819     0.00234070968117
    5    -0.00139119368648     0.00030928187321     0.00000000000000     0.00310958042633    -0.00473916143843
    6     0.00000000000000     0.00000000000000    -0.00229285898984     0.00000000000000     0.00000000000000
    7     0.01155691108063     0.01692419956840     0.00000000000000    -0.37506834402811     0.00001134998025
    8    -0.01651576658511    -0.01645277313754     0.00000000000000    -0.00001776336101    -0.05555060786910
    9     0.00000000000000     0.00000000000000     0.00065412380255     0.00000000000000     0.00000000000000
   10     0.00033733284711     0.00074132324918     0.00000000000000     0.00084755819929    -0.00062059338070
   11    -0.00075815893274    -0.00087480946532     0.00000000000000    -0.00006220506395     0.00122501438590
   12     0.00000000000000     0.00000000000000     0.00007248111154     0.00000000000000     0.00000000000000
   13    -0.00583573666645    -0.00042771861342     0.00000000000000     0.00111485183337    -0.00000038840902
   14    -0.00117541745264     0.00142498857508     0.00000000000000    -0.00000089635813    -0.00211998903427
   15     0.00000000000000     0.00000000000000     0.00825924076230     0.00000000000000     0.00000000000000
   16     0.00000070573557     0.00001489630665     0.00000000000000    -0.00055617157281     0.00127079748267
   17    -0.00000364038985    -0.00002637773683     0.00000000000000    -0.00023392577631     0.00003680912127
   18     0.00000000000000     0.00000000000000    -0.00155036055720     0.00000000000000     0.00000000000000
   19    -0.00927323288545    -0.00448873045102     0.00000000000000     0.00030407845447    -0.00233375615747
   20     0.02896544098410     0.00437045206267     0.00000000000000    -0.00310891726151    -0.00473505063547
   21     0.00000000000000     0.00000000000000     0.00065042212628     0.00000000000000     0.00000000000000
   22    -0.00054836139848    -0.00021039832057     0.00000000000000    -0.00001332480047     0.00000484565003
   23     0.00126981988688     0.00004111977136     0.00000000000000    -0.00000199221400    -0.00000416892761
   24     0.00000000000000     0.00000000000000     0.00007213297137     0.00000000000000     0.00000000000000
   25    -0.13500273366767     0.13734431225845     0.00000000000000    -0.00960324820888    -0.02872333939696
   26     0.13733660189367    -0.29391703025848     0.00000000000000     0.00471645868552     0.00477920716387
   27     0.00000000000000     0.00000000000000    -0.02769191898524     0.00000000000000     0.00000000000000
   28     0.00142572828497     0.00025644884393     0.00000000000000    -0.00054547219216    -0.00127883573059
   29    -0.00025672185321     0.00066370425997     0.00000000000000     0.00024129200055     0.00004057699559
   30     0.00000000000000     0.00000000000000    -0.00358240315276     0.00000000000000     0.00000000000000
   31     0.13887412160919    -0.14490763064807     0.00000000000000     0.00084403712126     0.00059864481910
   32    -0.14490763064807     0.30654118914214     0.00000000000000     0.00005958700591     0.00124456648605
   33     0.00000000000000     0.00000000000000     0.02071908661119     0.00000000000000     0.00000000000000
   34     0.00084403712126     0.00005958700591     0.00000000000000     0.39196192931329     0.00000685465994
   35     0.00059864481910     0.00124456648605     0.00000000000000     0.00000685465994     0.05505118379109
   36     0.00000000000000     0.00000000000000    -0.00358914378631     0.00000000000000     0.00000000000000

                36

    1     0.00000000000000
    2     0.00000000000000
    3     0.00067242641216
    4     0.00000000000000
    5     0.00000000000000
    6     0.00823220140216
    7     0.00000000000000
    8     0.00000000000000
    9    -0.02737254305518
   10     0.00000000000000
   11     0.00000000000000
   12    -0.00357287084833
   13     0.00000000000000
   14     0.00000000000000
   15    -0.00235005404829
   16     0.00000000000000
   17     0.00000000000000
   18     0.00006812952898
   19     0.00000000000000
   20     0.00000000000000
   21     0.00825119938065
   22     0.00000000000000
   23     0.00000000000000
   24    -0.00156048652458
   25     0.00000000000000
   26     0.00000000000000
   27     0.00068231658344
   28     0.00000000000000
   29     0.00000000000000
   30     0.00007226709164
   31     0.00000000000000
   32     0.00000000000000
   33    -0.00358914378631
   34     0.00000000000000
   35     0.00000000000000
   36     0.02046655786367




*** Psi4 exiting successfully. Buy a developer a beer!
