    -----------------------------------------------------------------------
          Psi4: An Open-Source Ab Initio Electronic Structure Package
                              Psi4 1.0.24 Driver

                          Git: Rev {master} 45aac03 dirty

    J. M. Turney, A. C. Simmonett, R. M. Parrish, E. G. Hohenstein,
    F. A. Evangelista, J. T. Fermann, B. J. Mintz, L. A. Burns, J. J. Wilke,
    M. L. Abrams, N. J. Russ, M. L. Leininger, C. L. Janssen, E. T. Seidl,
    W. D. Allen, H. F. Schaefer, R. A. King, E. F. Valeev, C. D. Sherrill,
    and T. D. Crawford, WIREs Comput. Mol. Sci. 2, 556-565 (2012)
    (doi: 10.1002/wcms.93)

                         Additional Contributions by
    A. E. DePrince, U. Bozkaya, A. Yu. Sokolov, D. G. A. Smith, R. Di Remigio,
    R. M. Richard, J. F. Gonthier, H. R. McAlexander, M. Saitow, and
    B. P. Pritchard
    -----------------------------------------------------------------------


    Psi4 started on: Mon May  1 19:06:09 2017

    Process ID:   6481
    PSI4DATADIR: /home/limvt/local/miniconda2/share/psi4
    Memory level set to 256.000 MB

  ==> Input File <==

--------------------------------------------------------------------------
memory 5.0 Gb
molecule GBI_5 {
  1 1
  C     2.0729    -0.4095      0.6347
  C     0.6826    -0.3631      0.7670
  C     2.8883    -0.7473      1.7235
  C     0.0582    -0.6614      1.9829
  C     2.2779    -1.0457      2.9502
  C     0.8955    -1.0066      3.0443
  C     1.8337    -1.6092      4.9869
  C     0.9706    -2.4945      7.0868
  N     2.8385    -1.3837      4.1571
  N     0.6402    -1.3586      4.3431
  N    -0.0998    -3.1171      6.5797
  N     1.0870    -2.4358      8.4174
  N     1.9379    -1.9596      6.3191
  H     2.5306    -0.1773     -0.3260
  H     0.0712    -0.0906     -0.0932
  H     3.9686    -0.7784      1.6209
  H    -1.0225    -0.6268      2.0888
  H    -0.2714    -1.3795      4.7755
  H    -0.7999    -3.5072      7.1958
  H    -0.1211    -3.4105      5.6133
  H     0.3785    -2.8359      9.0164
  H     1.8585    -1.9479      8.8508
  H     2.8317    -1.8397      6.7803
  units angstrom
}

set basis def2-SV(P)
set df_basis_mp2 def2-SV(P)-ri
set freeze_core True
optimize('mp2')
--------------------------------------------------------------------------

  Memory set to   5.000 GiB by Python script.
gradient() will perform analytic gradient computation.
    SCF Algorithm Type (re)set to DF.

*** tstart() called on c-19-414.local
*** at Mon May  1 19:06:10 2017


         ---------------------------------------------------------
                                   SCF
            by Justin Turney, Rob Parrish, and Andy Simmonett
                              RHF Reference
                        1 Threads,   5000 MiB Core
         ---------------------------------------------------------

  ==> Geometry <==

    Molecular point group: c1
    Full point group: C1

    Geometry (in Angstrom), charge = 1, multiplicity = 1:

       Center              X                  Y                   Z               Mass       
    ------------   -----------------  -----------------  -----------------  -----------------
           C          0.713809139634     1.069088320303    -3.576217295641    12.000000000000
           C         -0.676490860366     1.115488320303    -3.443917295641    12.000000000000
           C          1.529209139634     0.731288320303    -2.487417295641    12.000000000000
           C         -1.300890860366     0.817188320303    -2.228017295641    12.000000000000
           C          0.918809139634     0.432888320303    -1.260717295641    12.000000000000
           C         -0.463590860366     0.471988320303    -1.166617295641    12.000000000000
           C          0.474609139634    -0.130611679697     0.775982704359    12.000000000000
           C         -0.388490860366    -1.015911679697     2.875882704359    12.000000000000
           N          1.479409139634     0.094888320303    -0.053817295641    14.003074004780
           N         -0.718890860366     0.119988320303     0.132182704359    14.003074004780
           N         -1.458890860366    -1.638511679697     2.368782704359    14.003074004780
           N         -0.272090860366    -0.957211679697     4.206482704359    14.003074004780
           N          0.578809139634    -0.481011679697     2.108182704359    14.003074004780
           H          1.171509139634     1.301288320303    -4.536917295641     1.007825032070
           H         -1.287890860366     1.387988320303    -4.304117295641     1.007825032070
           H          2.609509139634     0.700188320303    -2.590017295641     1.007825032070
           H         -2.381590860366     0.851788320303    -2.122117295641     1.007825032070
           H         -1.630490860366     0.099088320303     0.564582704359     1.007825032070
           H         -2.158990860366    -2.028611679697     2.984882704359     1.007825032070
           H         -1.480190860366    -1.931911679697     1.402382704359     1.007825032070
           H         -0.980590860366    -1.357311679697     4.805482704359     1.007825032070
           H          0.499409139634    -0.469311679697     4.639882704359     1.007825032070
           H          1.472609139634    -0.361111679697     2.569382704359     1.007825032070

  Running in c1 symmetry.

  Rotational constants: A =      0.09014  B =      0.01392  C =      0.01233 [cm^-1]
  Rotational constants: A =   2702.27455  B =    417.23211  C =    369.60858 [MHz]
  Nuclear repulsion =  757.380924257740958

  Charge       = 1
  Multiplicity = 1
  Electrons    = 92
  Nalpha       = 46
  Nbeta        = 46

  ==> Algorithm <==

  SCF Algorithm Type is DF.
  DIIS enabled.
  MOM disabled.
  Fractional occupation disabled.
  Guess Type is SAD.
  Energy threshold   = 1.00e-10
  Density threshold  = 1.00e-10
  Integral threshold = 0.00e+00

  ==> Primary Basis <==

  Basis Set: DEF2-SV(P)
    Number of shells: 98
    Number of basis function: 202
    Number of Cartesian functions: 215
    Spherical Harmonics?: true
    Max angular momentum: 2

  ==> Pre-Iterations <==

   -------------------------------------------------------
    Irrep   Nso     Nmo     Nalpha   Nbeta   Ndocc  Nsocc
   -------------------------------------------------------
     A        202     202       0       0       0       0
   -------------------------------------------------------
    Total     202     202      46      46      46       0
   -------------------------------------------------------

  ==> Integral Setup <==

  ==> DFJK: Density-Fitted J/K Matrices <==

    J tasked:                  Yes
    K tasked:                  Yes
    wK tasked:                  No
    OpenMP threads:              1
    Integrals threads:           1
    Memory (MB):              3576
    Algorithm:                Core
    Integral Cache:           NONE
    Schwarz Cutoff:          1E-12
    Fitting Condition:       1E-12

   => Auxiliary Basis Set <=

  Basis Set: 
    Number of shells: 385
    Number of basis function: 1165
    Number of Cartesian functions: 1377
    Spherical Harmonics?: true
    Max angular momentum: 4

  Minimum eigenvalue in the overlap matrix is 2.4030366986E-04.
  Using Symmetric Orthogonalization.
  SCF Guess: Superposition of Atomic Densities via on-the-fly atomic UHF.

  ==> Iterations <==

                           Total Energy        Delta E     RMS |[F,P]|

   @DF-RHF iter   0:  -585.26514167202038   -5.85265e+02   3.73284e-02 
   @DF-RHF iter   1:  -580.09549223807710    5.16965e+00   2.89473e-03 
   @DF-RHF iter   2:  -580.29667354568198   -2.01181e-01   1.57760e-03 DIIS
   @DF-RHF iter   3:  -580.34175303941890   -4.50795e-02   4.91008e-04 DIIS
   @DF-RHF iter   4:  -580.34976492731641   -8.01189e-03   1.68090e-04 DIIS
   @DF-RHF iter   5:  -580.35074000945053   -9.75082e-04   6.60046e-05 DIIS
   @DF-RHF iter   6:  -580.35102354030721   -2.83531e-04   2.65847e-05 DIIS
   @DF-RHF iter   7:  -580.35107046399924   -4.69237e-05   1.19399e-05 DIIS
   @DF-RHF iter   8:  -580.35108080209773   -1.03381e-05   4.70898e-06 DIIS
   @DF-RHF iter   9:  -580.35108327657679   -2.47448e-06   1.89886e-06 DIIS
   @DF-RHF iter  10:  -580.35108370996238   -4.33386e-07   6.77233e-07 DIIS
   @DF-RHF iter  11:  -580.35108375234984   -4.23875e-08   2.63182e-07 DIIS
   @DF-RHF iter  12:  -580.35108375812763   -5.77779e-09   1.21157e-07 DIIS
   @DF-RHF iter  13:  -580.35108375923335   -1.10572e-09   4.17046e-08 DIIS
   @DF-RHF iter  14:  -580.35108375937432   -1.40972e-10   1.62925e-08 DIIS
   @DF-RHF iter  15:  -580.35108375939228   -1.79625e-11   7.80008e-09 DIIS
   @DF-RHF iter  16:  -580.35108375939660   -4.32010e-12   3.04781e-09 DIIS
   @DF-RHF iter  17:  -580.35108375939888   -2.27374e-12   1.27171e-09 DIIS
   @DF-RHF iter  18:  -580.35108375939978   -9.09495e-13   6.71436e-10 DIIS
   @DF-RHF iter  19:  -580.35108375939910    6.82121e-13   2.15133e-10 DIIS
   @DF-RHF iter  20:  -580.35108375939819    9.09495e-13   9.79720e-11 DIIS

  ==> Post-Iterations <==

    Orbital Energies (a.u.)
    -----------------------

    Doubly Occupied:                                                      

       1A    -15.819759     2A    -15.808532     3A    -15.807225  
       4A    -15.756339     5A    -15.681978     6A    -11.629490  
       7A    -11.508090     8A    -11.388378     9A    -11.366379  
      10A    -11.345036    11A    -11.337600    12A    -11.337417  
      13A    -11.328396    14A     -1.561632    15A     -1.487266  
      16A     -1.416045    17A     -1.398335    18A     -1.301885  
      19A     -1.236471    20A     -1.136476    21A     -1.104716  
      22A     -1.076135    23A     -1.023368    24A     -1.003513  
      25A     -0.965561    26A     -0.946659    27A     -0.926088  
      28A     -0.888990    29A     -0.884775    30A     -0.875113  
      31A     -0.831876    32A     -0.825699    33A     -0.793267  
      34A     -0.761659    35A     -0.730778    36A     -0.719073  
      37A     -0.707386    38A     -0.663340    39A     -0.643992  
      40A     -0.623384    41A     -0.622556    42A     -0.580568  
      43A     -0.564769    44A     -0.549679    45A     -0.423117  
      46A     -0.413721  

    Virtual:                                                              

      47A     -0.049838    48A     -0.022067    49A      0.017625  
      50A      0.022773    51A      0.032518    52A      0.054041  
      53A      0.056765    54A      0.077700    55A      0.098743  
      56A      0.106278    57A      0.111056    58A      0.142446  
      59A      0.167744    60A      0.182644    61A      0.194190  
      62A      0.210717    63A      0.250880    64A      0.270856  
      65A      0.286756    66A      0.301985    67A      0.308764  
      68A      0.333707    69A      0.344094    70A      0.362020  
      71A      0.376347    72A      0.380421    73A      0.396164  
      74A      0.430342    75A      0.450324    76A      0.471455  
      77A      0.503897    78A      0.510531    79A      0.546471  
      80A      0.556553    81A      0.562947    82A      0.570549  
      83A      0.574087    84A      0.581207    85A      0.588739  
      86A      0.594383    87A      0.610191    88A      0.621449  
      89A      0.637506    90A      0.659038    91A      0.685286  
      92A      0.698947    93A      0.744021    94A      0.746072  
      95A      0.762163    96A      0.786164    97A      0.788753  
      98A      0.820949    99A      0.822338   100A      0.828548  
     101A      0.832110   102A      0.835631   103A      0.845485  
     104A      0.849107   105A      0.871501   106A      0.876278  
     107A      0.882817   108A      0.888344   109A      0.902478  
     110A      0.921417   111A      0.928444   112A      0.932016  
     113A      0.943166   114A      0.960231   115A      0.977306  
     116A      1.007786   117A      1.027569   118A      1.031488  
     119A      1.033456   120A      1.071451   121A      1.090006  
     122A      1.115150   123A      1.139515   124A      1.196098  
     125A      1.206107   126A      1.235306   127A      1.284232  
     128A      1.288060   129A      1.327512   130A      1.368790  
     131A      1.378244   132A      1.390466   133A      1.403806  
     134A      1.422550   135A      1.481764   136A      1.485284  
     137A      1.530017   138A      1.544979   139A      1.560693  
     140A      1.575155   141A      1.614294   142A      1.642036  
     143A      1.655134   144A      1.670741   145A      1.677884  
     146A      1.691550   147A      1.738604   148A      1.925314  
     149A      1.960184   150A      1.980746   151A      2.009465  
     152A      2.067097   153A      2.099142   154A      2.105203  
     155A      2.131443   156A      2.165629   157A      2.175589  
     158A      2.193233   159A      2.226940   160A      2.245486  
     161A      2.257298   162A      2.262021   163A      2.268252  
     164A      2.283558   165A      2.327288   166A      2.333851  
     167A      2.419828   168A      2.428994   169A      2.462369  
     170A      2.487938   171A      2.505526   172A      2.525429  
     173A      2.576128   174A      2.617864   175A      2.627860  
     176A      2.667237   177A      2.678970   178A      2.694408  
     179A      2.710933   180A      2.741788   181A      2.774197  
     182A      2.822895   183A      2.845932   184A      2.885584  
     185A      2.893561   186A      2.916774   187A      2.942138  
     188A      2.965679   189A      2.989636   190A      3.008925  
     191A      3.023164   192A      3.031757   193A      3.089912  
     194A      3.126810   195A      3.201183   196A      3.292794  
     197A      3.369553   198A      3.412079   199A      3.523465  
     200A      3.587620   201A      3.618519   202A      3.820603  

    Final Occupation by Irrep:
              A 
    DOCC [    46 ]

  Energy converged.

  @DF-RHF Final Energy:  -580.35108375939819

   => Energetics <=

    Nuclear Repulsion Energy =            757.3809242577409577
    One-Electron Energy =               -2275.8589952706156510
    Two-Electron Energy =                 938.1269872534762726
    DFT Exchange-Correlation Energy =       0.0000000000000000
    Empirical Dispersion Energy =           0.0000000000000000
    PCM Polarization Energy =               0.0000000000000000
    EFP Energy =                            0.0000000000000000
    Total Energy =                       -580.3510837593985343


  Saving occupied orbitals to File 180.

*** tstop() called on c-19-414.local at Mon May  1 19:06:38 2017
Module time:
	user time   =      19.23 seconds =       0.32 minutes
	system time =       0.99 seconds =       0.02 minutes
	total time  =         28 seconds =       0.47 minutes
Total time:
	user time   =      19.23 seconds =       0.32 minutes
	system time =       0.99 seconds =       0.02 minutes
	total time  =         28 seconds =       0.47 minutes


Properties will be evaluated at   0.000000,   0.000000,   0.000000 Bohr

Properties computed using the SCF density matrix

  Nuclear Dipole Moment: (a.u.)
     X:    -3.9050      Y:    -1.6866      Z:     3.1745

  Electronic Dipole Moment: (a.u.)
     X:     1.9701      Y:    -0.1564      Z:     1.9775

  Dipole Moment: (a.u.)
     X:    -1.9349      Y:    -1.8430      Z:     5.1520     Total:     5.8038

  Dipole Moment: (Debye)
     X:    -4.9180      Y:    -4.6844      Z:    13.0951     Total:    14.7517


  //>>>>>>>>>>>>>>>>>>>>>>>>>>>>>>>>>>>//
  //               DFMP2               //
  //<<<<<<<<<<<<<<<<<<<<<<<<<<<<<<<<<<<//


*** tstart() called on c-19-414.local
*** at Mon May  1 19:06:38 2017


*** tstop() called on c-19-414.local at Mon May  1 19:06:38 2017
Module time:
	user time   =       0.37 seconds =       0.01 minutes
	system time =       0.01 seconds =       0.00 minutes
	total time  =          0 seconds =       0.00 minutes
Total time:
	user time   =      19.62 seconds =       0.33 minutes
	system time =       1.00 seconds =       0.02 minutes
	total time  =         28 seconds =       0.47 minutes
	 --------------------------------------------------------
	                          DF-MP2                         
	      2nd-Order Density-Fitted Moller-Plesset Theory     
	              RMP2 Wavefunction,   1 Threads             
	                                                         
	        Rob Parrish, Justin Turney, Andy Simmonett,      
	           Ed Hohenstein, and C. David Sherrill          
	 --------------------------------------------------------

   => Auxiliary Basis Set <=

  Basis Set: DEF2-SV(P)-RI
    Number of shells: 268
    Number of basis function: 764
    Number of Cartesian functions: 865
    Spherical Harmonics?: true
    Max angular momentum: 3

	 --------------------------------------------------------
	                 NBF =   202, NAUX =   764
	 --------------------------------------------------------
	   CLASS    FOCC     OCC    AOCC    AVIR     VIR    FVIR
	   PAIRS      13      46      33     156     156       0
	 --------------------------------------------------------

DGAS Warning! /src/lib/libfock/apps.cc:80 is not currently checking restricted

         ------------------------------------------------------------
                                     CPHF                           
                                  Rob Parrish                       
         ------------------------------------------------------------

  ==> Geometry <==

    Molecular point group: c1
    Full point group: C1

    Geometry (in Angstrom), charge = 1, multiplicity = 1:

       Center              X                  Y                   Z               Mass       
    ------------   -----------------  -----------------  -----------------  -----------------
           C          0.713809139634     1.069088320303    -3.576217295641    12.000000000000
           C         -0.676490860366     1.115488320303    -3.443917295641    12.000000000000
           C          1.529209139634     0.731288320303    -2.487417295641    12.000000000000
           C         -1.300890860366     0.817188320303    -2.228017295641    12.000000000000
           C          0.918809139634     0.432888320303    -1.260717295641    12.000000000000
           C         -0.463590860366     0.471988320303    -1.166617295641    12.000000000000
           C          0.474609139634    -0.130611679697     0.775982704359    12.000000000000
           C         -0.388490860366    -1.015911679697     2.875882704359    12.000000000000
           N          1.479409139634     0.094888320303    -0.053817295641    14.003074004780
           N         -0.718890860366     0.119988320303     0.132182704359    14.003074004780
           N         -1.458890860366    -1.638511679697     2.368782704359    14.003074004780
           N         -0.272090860366    -0.957211679697     4.206482704359    14.003074004780
           N          0.578809139634    -0.481011679697     2.108182704359    14.003074004780
           H          1.171509139634     1.301288320303    -4.536917295641     1.007825032070
           H         -1.287890860366     1.387988320303    -4.304117295641     1.007825032070
           H          2.609509139634     0.700188320303    -2.590017295641     1.007825032070
           H         -2.381590860366     0.851788320303    -2.122117295641     1.007825032070
           H         -1.630490860366     0.099088320303     0.564582704359     1.007825032070
           H         -2.158990860366    -2.028611679697     2.984882704359     1.007825032070
           H         -1.480190860366    -1.931911679697     1.402382704359     1.007825032070
           H         -0.980590860366    -1.357311679697     4.805482704359     1.007825032070
           H          0.499409139634    -0.469311679697     4.639882704359     1.007825032070
           H          1.472609139634    -0.361111679697     2.569382704359     1.007825032070

  Nuclear repulsion =  757.380924257740958
  Reference energy  = -580.351083759398193

  ==> Basis Set <==

  Basis Set: DEF2-SV(P)
    Number of shells: 98
    Number of basis function: 202
    Number of Cartesian functions: 215
    Spherical Harmonics?: true
    Max angular momentum: 2

  ==> CGRSolver (by Rob Parrish) <==

   Number of roots    =         1
   Preconditioning    =    JACOBI
   Convergence cutoff =     1E-06
   Maximum iterations =       100

  ==> CPHFRHamiltonian (by Rob Parrish) <== 

  ==> DFJK: Density-Fitted J/K Matrices <==

    J tasked:                  Yes
    K tasked:                  Yes
    wK tasked:                  No
    OpenMP threads:              1
    Integrals threads:           1
    Memory (MB):              3576
    Algorithm:                Core
    Integral Cache:           NONE
    Schwarz Cutoff:          1E-12
    Fitting Condition:       1E-12

   => Auxiliary Basis Set <=

  Basis Set: 
    Number of shells: 385
    Number of basis function: 1165
    Number of Cartesian functions: 1377
    Spherical Harmonics?: true
    Max angular momentum: 4

  ==> CPHF Iterations <==

  => Iterations <=

             Iter  Converged  Remaining    Residual
  CGR           1          0          1   1.260E-01
  CGR           2          0          1   3.926E-02
  CGR           3          0          1   2.070E-02
  CGR           4          0          1   6.104E-03
  CGR           5          0          1   3.362E-03
  CGR           6          0          1   1.182E-03
  CGR           7          0          1   4.545E-04
  CGR           8          0          1   1.593E-04
  CGR           9          0          1   5.750E-05
  CGR          10          0          1   2.168E-05
  CGR          11          0          1   6.308E-06
  CGR          12          0          1   2.351E-06
  CGR          13          0          1   1.111E-06
  CGR          14          1          0   4.494E-07

    CGRSolver converged.

  ==> DFCorrGrad: Density-Fitted Correlated Gradients <==

    OpenMP threads:              1
    Integrals threads:           1
    Memory (MB):              3576
    Schwarz Cutoff:          0E+00
    Fitting Condition:       1E-12

   => Auxiliary Basis Set <=

  Basis Set: 
    Number of shells: 385
    Number of basis function: 1165
    Number of Cartesian functions: 1377
    Spherical Harmonics?: true
    Max angular momentum: 4

	-----------------------------------------------------------
	 ==================> DF-MP2 Energies <==================== 
	-----------------------------------------------------------
	 Reference Energy          =    -580.3510837593981933 [Eh]
	 Singles Energy            =      -0.0000000000000001 [Eh]
	 Same-Spin Energy          =      -0.4869239328474391 [Eh]
	 Opposite-Spin Energy      =      -1.2907346595032079 [Eh]
	 Correlation Energy        =      -1.7776585923506469 [Eh]
	 Total Energy              =    -582.1287423517488833 [Eh]
	-----------------------------------------------------------
	 ================> DF-SCS-MP2 Energies <================== 
	-----------------------------------------------------------
	 SCS Same-Spin Scale       =       0.3333333333333333 [-]
	 SCS Opposite-Spin Scale   =       1.2000000000000000 [-]
	 SCS Same-Spin Energy      =      -0.1623079776158130 [Eh]
	 SCS Opposite-Spin Energy  =      -1.5488815914038494 [Eh]
	 SCS Correlation Energy    =      -1.7111895690196623 [Eh]
	 SCS Total Energy          =    -582.0622733284178594 [Eh]
	-----------------------------------------------------------


  -Total Gradient:
     Atom            X                  Y                   Z
    ------   -----------------  -----------------  -----------------
       1       -0.016343228524     0.004047756490    -0.011512188963
       2        0.014147395155     0.001481165954    -0.007980394627
       3       -0.000624833971    -0.003397104673     0.010362176817
       4       -0.000492447928    -0.001128212397     0.007353212950
       5       -0.019548615098    -0.004037145649     0.003946308172
       6        0.015381753221    -0.000684365967    -0.001273749513
       7       -0.004158807051    -0.020080705218     0.061708870224
       8       -0.002147183635     0.008440399261    -0.006027003650
       9       -0.012690174785     0.015963506213    -0.024635210553
      10        0.019245663347     0.011157327473    -0.026958978430
      11       -0.002679495144    -0.010150857928     0.003750548474
      12       -0.003347566582    -0.001647917080     0.008396387683
      13        0.013376821174     0.009388154030    -0.021740323406
      14       -0.002207889086    -0.000826042787     0.003593145977
      15        0.003019804464    -0.001103801040     0.002861860527
      16       -0.006807308659     0.000253052864    -0.000261008364
      17        0.006326189965    -0.000344820703     0.000019920558
      18        0.007643002783    -0.003924534169    -0.000766466307
      19        0.004834627623     0.002000105024    -0.003083620715
      20       -0.001720490315     0.002713310367     0.007865905732
      21        0.001353715450     0.004555247961    -0.005342989847
      22       -0.002584559433    -0.005461755321    -0.004437622999
      23       -0.009976372976    -0.007212762704     0.004161220255


			-----------------------------------------
			 OPTKING 2.0: for geometry optimizations 
			  - R.A. King,  Bethel University        
			-----------------------------------------

	Internal coordinates to be generated automatically.
	Detected frag 1 with atoms:  1 2 3 4 5 6 7 8 9 10 11 12 13 14 15 16 17 18 19 20
	 21 22 23
	---Fragment 1 Bond Connectivity---
	 1 : 2 3 14
	 2 : 1 4 15
	 3 : 1 5 16
	 4 : 2 6 17
	 5 : 3 6 9
	 6 : 4 5 10
	 7 : 9 10 13
	 8 : 11 12 13
	 9 : 5 7
	 10 : 6 7 18
	 11 : 8 19 20
	 12 : 8 21 22
	 13 : 7 8 23
	 14 : 1
	 15 : 2
	 16 : 3
	 17 : 4
	 18 : 10
	 19 : 11
	 20 : 11
	 21 : 12
	 22 : 12
	 23 : 13

	---Fragment 1 Geometry and Gradient---
	 C           1.3489037851        2.0202841372       -6.7580712804
	 C          -1.2783824575        2.1079674298       -6.5080605131
	 C           2.8897864738        1.3819346496       -4.7005374670
	 C          -2.4583274549        1.5442621244       -4.2103425081
	 C           1.7362976423        0.8180403715       -2.3824104198
	 C          -0.8760597638        0.8919286633       -2.2045871906
	 C           0.8968812941       -0.2468203044        1.4663947951
	 C          -0.7341413312       -1.9197948498        5.4346307015
	 N           2.7956781124        0.1793129386       -0.1016999500
	 N          -1.3585068455        0.2267450645        0.2497891107
	 N          -2.7569041839       -3.0963383402        4.4763505796
	 N          -0.5141772094       -1.8088679258        7.9491002940
	 N           1.0937907571       -0.9089803413        3.9838879493
	 H           2.2138314361        2.4590785453       -8.5735311763
	 H          -2.4337610151        2.6229178010       -8.1336029326
	 H           4.9312576152        1.3231641668       -4.8944233682
	 H          -4.5005544867        1.6096466486       -4.0102205106
	 H          -3.0811811883        0.1872497883        1.0669066906
	 H          -4.0799014495       -3.8335205046        5.6406108500
	 H          -2.7971553505       -3.6507839876        2.6501192447
	 H          -1.8530481745       -2.5649473516        9.0810462476
	 H           0.9437465022       -0.8868705456        8.7681076000
	 H           2.7828279747       -0.6824021780        4.8554296418
	            -0.0163432285        0.0040477565       -0.0115121890
	             0.0141473952        0.0014811660       -0.0079803946
	            -0.0006248340       -0.0033971047        0.0103621768
	            -0.0004924479       -0.0011282124        0.0073532130
	            -0.0195486151       -0.0040371456        0.0039463082
	             0.0153817532       -0.0006843660       -0.0012737495
	            -0.0041588071       -0.0200807052        0.0617088702
	            -0.0021471836        0.0084403993       -0.0060270036
	            -0.0126901748        0.0159635062       -0.0246352106
	             0.0192456633        0.0111573275       -0.0269589784
	            -0.0026794951       -0.0101508579        0.0037505485
	            -0.0033475666       -0.0016479171        0.0083963877
	             0.0133768212        0.0093881540       -0.0217403234
	            -0.0022078891       -0.0008260428        0.0035931460
	             0.0030198045       -0.0011038010        0.0028618605
	            -0.0068073087        0.0002530529       -0.0002610084
	             0.0063261900       -0.0003448207        0.0000199206
	             0.0076430028       -0.0039245342       -0.0007664663
	             0.0048346276        0.0020001050       -0.0030836207
	            -0.0017204903        0.0027133104        0.0078659057
	             0.0013537154        0.0045552480       -0.0053429898
	            -0.0025845594       -0.0054617553       -0.0044376230
	            -0.0099763730       -0.0072127627        0.0041612203

	Previous optimization step data not found.  Starting new optimization.

	---Fragment 1 Intrafragment Coordinates---
	 - Coordinate -           - BOHR/RAD -       - ANG/DEG -
	 R(1,2)           =         2.640611	       1.397351
	 R(1,3)           =         2.648633	       1.401596
	 R(1,14)          =         2.058284	       1.089197
	 R(2,4)           =         2.643774	       1.399025
	 R(2,15)          =         2.059724	       1.089959
	 R(3,5)           =         2.649948	       1.402292
	 R(3,16)          =         2.051499	       1.085607
	 R(4,6)           =         2.636696	       1.395279
	 R(4,17)          =         2.053050	       1.086427
	 R(5,6)           =         2.619445	       1.386151
	 R(5,9)           =         2.594591	       1.372998
	 R(6,10)          =         2.588279	       1.369658
	 R(7,9)           =         2.499188	       1.322513
	 R(7,10)          =         2.605987	       1.379029
	 R(7,13)          =         2.610556	       1.381447
	 R(8,11)          =         2.528661	       1.338110
	 R(8,12)          =         2.526509	       1.336971
	 R(8,13)          =         2.543174	       1.345790
	 R(10,18)         =         1.907052	       1.009169
	 R(11,19)         =         1.910304	       1.010889
	 R(11,20)         =         1.908966	       1.010181
	 R(12,21)         =         1.909328	       1.010373
	 R(12,22)         =         1.909553	       1.010492
	 R(13,23)         =         1.914098	       1.012897
	 B(1,2,4)         =         2.116787	     121.282942
	 B(1,2,15)        =         2.084824	     119.451631
	 B(1,3,5)         =         2.068725	     118.529193
	 B(1,3,16)        =         2.108783	     120.824379
	 B(2,1,3)         =         2.109802	     120.882768
	 B(2,1,14)        =         2.088088	     119.638616
	 B(2,4,6)         =         2.033153	     116.491063
	 B(2,4,17)        =         2.119854	     121.458703
	 B(3,1,14)        =         2.085291	     119.478346
	 B(3,5,6)         =         2.080012	     119.175897
	 B(3,5,9)         =         2.270003	     130.061619
	 B(4,2,15)        =         2.081574	     119.265382
	 B(4,6,5)         =         2.157728	     123.628696
	 B(4,6,10)        =         2.309162	     132.305255
	 B(5,3,16)        =         2.105677	     120.646414
	 B(5,6,10)        =         1.816271	     104.064677
	 B(5,9,7)         =         1.858027	     106.457102
	 B(6,4,17)        =         2.130176	     122.050077
	 B(6,5,9)         =         1.933143	     110.760932
	 B(6,10,7)        =         1.905067	     109.152317
	 B(6,10,18)       =         2.189529	     125.450754
	 B(7,10,18)       =         2.187064	     125.309548
	 B(7,13,8)        =         2.210192	     126.634655
	 B(7,13,23)       =         2.066477	     118.400390
	 B(8,11,19)       =         2.097384	     120.171266
	 B(8,11,20)       =         2.111277	     120.967255
	 B(8,12,21)       =         2.107829	     120.769718
	 B(8,12,22)       =         2.111252	     120.965805
	 B(8,13,23)       =         2.005958	     114.932933
	 B(9,7,10)        =         1.910962	     109.490055
	 B(9,7,13)        =         2.203114	     126.229115
	 B(10,7,13)       =         2.167092	     124.165229
	 B(11,8,12)       =         2.056956	     117.854917
	 B(11,8,13)       =         2.145651	     122.936749
	 B(12,8,13)       =         2.080249	     119.189502
	 B(19,11,20)      =         2.044702	     117.152801
	 B(21,12,22)      =         2.062699	     118.183956
	 D(1,2,4,6)       =        -0.001825	      -0.104576
	 D(1,2,4,17)      =        -3.140946	    -179.962956
	 D(1,3,5,6)       =         0.007802	       0.446998
	 D(1,3,5,9)       =        -3.125084	    -179.054138
	 D(2,1,3,5)       =         0.005946	       0.340688
	 D(2,1,3,16)      =        -3.136411	    -179.703085
	 D(2,4,6,5)       =         0.016385	       0.938807
	 D(2,4,6,10)      =        -3.133893	    -179.558831
	 D(3,1,2,4)       =        -0.009030	      -0.517401
	 D(3,1,2,15)      =         3.133919	     179.560327
	 D(3,5,6,4)       =        -0.019639	      -1.125211
	 D(3,5,6,10)      =         3.128576	     179.254199
	 D(3,5,9,7)       =        -3.106308	    -177.978321
	 D(4,2,1,14)      =         3.135883	     179.672839
	 D(4,6,5,9)       =         3.114828	     178.466470
	 D(4,6,10,7)      =         3.139012	     179.852131
	 D(4,6,10,18)     =        -0.059446	      -3.406024
	 D(5,3,1,14)      =        -3.138962	    -179.849251
	 D(5,6,4,17)      =        -3.127695	    -179.203720
	 D(5,6,10,7)      =        -0.010036	      -0.575029
	 D(5,6,10,18)     =         3.074691	     176.166816
	 D(5,9,7,10)      =        -0.048837	      -2.798141
	 D(5,9,7,13)      =        -3.124178	    -179.002194
	 D(6,4,2,15)      =         3.138413	     179.817838
	 D(6,5,3,16)      =        -3.133029	    -179.509310
	 D(6,5,9,7)       =         0.043415	       2.487497
	 D(6,10,7,9)      =         0.037885	       2.170623
	 D(6,10,7,13)     =         3.114890	     178.470057
	 D(7,13,8,11)     =         0.351861	      20.160172
	 D(7,13,8,12)     =        -2.817895	    -161.453513
	 D(8,13,7,9)      =        -2.845366	    -163.027439
	 D(8,13,7,10)     =         0.371726	      21.298311
	 D(9,5,3,16)      =         0.017271	       0.989554
	 D(9,5,6,10)      =        -0.020143	      -1.154119
	 D(9,7,10,18)     =        -3.046942	    -174.576926
	 D(9,7,13,23)     =         0.258334	      14.801430
	 D(10,6,4,17)     =         0.005212	       0.298641
	 D(10,7,13,23)    =        -2.807760	    -160.872820
	 D(11,8,12,21)    =        -0.018492	      -1.059534
	 D(11,8,12,22)    =        -3.102100	    -177.737227
	 D(11,8,13,23)    =        -2.752973	    -157.733747
	 D(12,8,11,19)    =         0.023513	       1.347206
	 D(12,8,11,20)    =        -2.850763	    -163.336672
	 D(12,8,13,23)    =         0.360455	      20.652568
	 D(13,7,10,18)    =         0.030063	       1.722509
	 D(13,8,11,19)    =         3.137296	     179.753826
	 D(13,8,11,20)    =         0.263020	      15.069948
	 D(13,8,12,21)    =        -3.133350	    -179.527750
	 D(13,8,12,22)    =         0.066228	       3.794558
	 D(14,1,2,15)     =        -0.004353	      -0.249433
	 D(14,1,3,16)     =         0.001867	       0.106977
	 D(15,2,4,17)     =        -0.000708	      -0.040542
	 R(10,11)         =         5.555378	       2.939779

	Current energy   :      -582.1287423517

	Generating empirical Hessian (Schlegel '84) for each fragment.
	Taking RFO optimization step.
	Going to follow RFO solution 1.
	Using RFO vector 1.
	Norm of target step-size    0.37407
	Projected energy change by RFO approximation:        -0.0251369902

	Back-transformation to cartesian coordinates...
	Could not converge backtransformation.
	Using first guess instead.

	--- Internal Coordinate Step in ANG or DEG, aJ/ANG or AJ/DEG ---
	 ---------------------------------------------------------------------------
	   Coordinate                Previous        Force       Change         New 
	   ----------                --------       ------       ------       ------
	    1 R(1,2)          =      1.397351     0.164066     0.021590     1.418942
	    2 R(1,3)          =      1.401596    -0.056348    -0.008024     1.393572
	    3 R(1,14)         =      1.089197     0.035205     0.006440     1.095637
	    4 R(2,4)          =      1.399025    -0.020633    -0.002136     1.396889
	    5 R(2,15)         =      1.089959     0.034837     0.006910     1.096869
	    6 R(3,5)          =      1.402292     0.030723     0.005574     1.407867
	    7 R(3,16)         =      1.085607     0.055666     0.010494     1.096101
	    8 R(4,6)          =      1.395279     0.037261     0.006845     1.402124
	    9 R(4,17)         =      1.086427     0.051919     0.010278     1.096705
	   10 R(5,6)          =      1.386151     0.252337     0.037108     1.423259
	   11 R(5,9)          =      1.372998     0.018475     0.002871     1.375869
	   12 R(6,10)         =      1.369658     0.083453     0.013035     1.382693
	   13 R(7,9)          =      1.322513    -0.098373    -0.007090     1.315424
	   14 R(7,10)         =      1.379029     0.024365     0.002405     1.381434
	   15 R(7,13)         =      1.381447     0.143402     0.018584     1.400031
	   16 R(8,11)         =      1.338110     0.009848     0.002073     1.340183
	   17 R(8,12)         =      1.336971     0.015558     0.002458     1.339429
	   18 R(8,13)         =      1.345790    -0.035773    -0.001323     1.344466
	   19 R(10,18)        =      1.009169     0.058917     0.010558     1.019727
	   20 R(11,19)        =      1.010889     0.049428     0.007810     1.018699
	   21 R(11,20)        =      1.010181     0.068190     0.009977     1.020158
	   22 R(12,21)        =      1.010373     0.048779     0.013637     1.024009
	   23 R(12,22)        =      1.010492     0.053665     0.012844     1.023336
	   24 R(13,23)        =      1.012897     0.063952     0.013819     1.026716
	   25 B(1,2,4)        =    121.282942     0.000299     0.722038   122.004980
	   26 B(1,2,15)       =    119.451631    -0.000087    -0.081354   119.370277
	   27 B(1,3,5)        =    118.529193    -0.000425    -1.247192   117.282001
	   28 B(1,3,16)       =    120.824379     0.000282     0.914618   121.738997
	   29 B(2,1,3)        =    120.882768     0.000384     0.877591   121.760359
	   30 B(2,1,14)       =    119.638616    -0.000156    -0.281935   119.356681
	   31 B(2,4,6)        =    116.491063    -0.000268    -0.619051   115.872012
	   32 B(2,4,17)       =    121.458703     0.000083     0.100519   121.559222
	   33 B(3,1,14)       =    119.478346    -0.000228    -0.595415   118.882931
	   34 B(3,5,6)        =    119.175897     0.000269     0.967138   120.143036
	   35 B(3,5,9)        =    130.061619    -0.000161    -1.059140   129.002479
	   36 B(4,2,15)       =    119.265382    -0.000212    -0.640718   118.624664
	   37 B(4,6,5)        =    123.628696    -0.000259    -0.697546   122.931150
	   38 B(4,6,10)       =    132.305255     0.000103    -0.567472   131.737783
	   39 B(5,3,16)       =    120.646414     0.000143     0.332440   120.978853
	   40 B(5,6,10)       =    104.064677     0.000156     1.259246   105.323924
	   41 B(5,9,7)        =    106.457102    -0.000789    -2.888161   103.568941
	   42 B(6,4,17)       =    122.050077     0.000185     0.518517   122.568594
	   43 B(6,5,9)        =    110.760932    -0.000108     0.092565   110.853497
	   44 B(6,10,7)       =    109.152317    -0.001465    -4.231971   104.920346
	   45 B(6,10,18)      =    125.450754     0.000465     0.835546   126.286300
	   46 B(7,10,18)      =    125.309548     0.000989     3.057501   128.367049
	   47 B(7,13,8)       =    126.634655     0.000430     0.876717   127.511372
	   48 B(7,13,23)      =    118.400390    -0.000943    -3.511682   114.888708
	   49 B(8,11,19)      =    120.171266     0.000144     0.608164   120.779430
	   50 B(8,11,20)      =    120.967255    -0.000195    -0.841959   120.125296
	   51 B(8,12,21)      =    120.769718     0.000136     0.378622   121.148340
	   52 B(8,12,22)      =    120.965805     0.000062     0.057441   121.023246
	   53 B(8,13,23)      =    114.932933     0.000510     2.506168   117.439101
	   54 B(9,7,10)       =    109.490055     0.002215     5.841232   115.331287
	   55 B(9,7,13)       =    126.229115    -0.001973    -5.123250   121.105865
	   56 B(10,7,13)      =    124.165229    -0.000241    -0.679968   123.485260
	   57 B(11,8,12)      =    117.854917     0.000970     2.789050   120.643967
	   58 B(11,8,13)      =    122.936749    -0.000896    -2.647127   120.289622
	   59 B(12,8,13)      =    119.189502    -0.000073    -0.124099   119.065403
	   60 B(19,11,20)     =    117.152801     0.000042     0.084423   117.237224
	   61 B(21,12,22)     =    118.183956    -0.000197    -0.424038   117.759918
	   62 D(1,2,4,6)      =     -0.104576    -0.000000     0.018203    -0.086374
	   63 D(1,2,4,17)     =   -179.962956    -0.000004    -0.271019  -180.233975
	   64 D(1,3,5,6)      =      0.446998    -0.000000    -0.017599     0.429398
	   65 D(1,3,5,9)      =   -179.054138    -0.000013    -0.913315  -179.967453
	   66 D(2,1,3,5)      =      0.340688    -0.000002    -0.119568     0.221120
	   67 D(2,1,3,16)     =   -179.703085    -0.000003    -0.214855  -179.917940
	   68 D(2,4,6,5)      =      0.938807    -0.000004    -0.179496     0.759312
	   69 D(2,4,6,10)     =   -179.558831    -0.000010    -0.804646  -180.363478
	   70 D(3,1,2,4)      =     -0.517401     0.000001     0.112089    -0.405312
	   71 D(3,1,2,15)     =    179.560327    -0.000001    -0.069361   179.490967
	   72 D(3,5,6,4)      =     -1.125211     0.000002     0.165804    -0.959407
	   73 D(3,5,6,10)     =    179.254199     0.000007     0.655082   179.909281
	   74 D(3,5,9,7)      =   -177.978321    -0.000026    -2.072006  -180.050327
	   75 D(4,2,1,14)     =    179.672839    -0.000001    -0.015361   179.657479
	   76 D(4,6,5,9)      =    178.466470     0.000013     0.904141   179.370611
	   77 D(4,6,10,7)     =    179.852131     0.000015     1.161182   181.013313
	   78 D(4,6,10,18)    =     -3.406024    -0.000027    -2.587108    -5.993132
	   79 D(5,3,1,14)     =   -179.849251    -0.000001     0.007869  -179.841381
	   80 D(5,6,4,17)     =   -179.203720     0.000000     0.112271  -179.091449
	   81 D(5,6,10,7)     =     -0.575029     0.000009     0.611233     0.036204
	   82 D(5,6,10,18)    =    176.166816    -0.000033    -3.137057   173.029759
	   83 D(5,9,7,10)     =     -2.798141     0.000027     3.260325     0.462185
	   84 D(5,9,7,13)     =   -179.002194     0.000024     2.559512  -176.442682
	   85 D(6,4,2,15)     =    179.817838     0.000002     0.198765   180.016602
	   86 D(6,5,3,16)     =   -179.509310     0.000001     0.076649  -179.432661
	   87 D(6,5,9,7)      =      2.487497    -0.000039    -2.905068    -0.417570
	   88 D(6,10,7,9)     =      2.170623    -0.000020    -2.495934    -0.325311
	   89 D(6,10,7,13)    =    178.470057    -0.000036    -1.972920   176.497137
	   90 D(7,13,8,11)    =     20.160172    -0.000035    -3.088934    17.071238
	   91 D(7,13,8,12)    =   -161.453513    -0.000018    -1.838343  -163.291857
	   92 D(8,13,7,9)     =   -163.027439     0.000081     7.286912  -155.740527
	   93 D(8,13,7,10)    =     21.298311     0.000061     6.315692    27.614003
	   94 D(9,5,3,16)     =      0.989554    -0.000012    -0.819066     0.170488
	   95 D(9,5,6,10)     =     -1.154119     0.000018     1.393418     0.239299
	   96 D(9,7,10,18)    =   -174.576926     0.000026     1.455858  -173.121068
	   97 D(9,7,13,23)    =     14.801430     0.000056     4.690861    19.492291
	   98 D(10,6,4,17)    =      0.298641    -0.000007    -0.512880    -0.214238
	   99 D(10,7,13,23)   =   -160.872820     0.000036     3.719640  -157.153180
	  100 D(11,8,12,21)   =     -1.059534     0.000053     4.514159     3.454625
	  101 D(11,8,12,22)   =   -177.737227     0.000051     4.269139  -173.468087
	  102 D(11,8,13,23)   =   -157.733747    -0.000005    -0.322161  -158.055908
	  103 D(12,8,11,19)   =      1.347206     0.000001     0.186606     1.533812
	  104 D(12,8,11,20)   =   -163.336672     0.000009     0.814789  -162.521883
	  105 D(12,8,13,23)   =     20.652568     0.000013     0.928429    21.580997
	  106 D(13,7,10,18)   =      1.722509     0.000010     1.978872     3.701381
	  107 D(13,8,11,19)   =    179.753826     0.000015     1.411103   181.164929
	  108 D(13,8,11,20)   =     15.069948     0.000023     2.039287    17.109235
	  109 D(13,8,12,21)   =   -179.527750     0.000043     3.346793  -176.180957
	  110 D(13,8,12,22)   =      3.794558     0.000040     3.101773     6.896331
	  111 D(14,1,2,15)    =     -0.249433    -0.000003    -0.196810    -0.446243
	  112 D(14,1,3,16)    =      0.106977    -0.000002    -0.087418     0.019558
	  113 D(15,2,4,17)    =     -0.040542    -0.000002    -0.090456    -0.130999
	  114 R(10,11)        =      2.939779    -0.006195     0.003756     2.943535
	 ---------------------------------------------------------------------------
	Successfully symmetrized geometry.

  ==> Convergence Check <==

  Measures of convergence in internal coordinates in au.
  Criteria marked as inactive (o), active & met (*), and active & unmet ( ).
  --------------------------------------------------------------------------------------------- ~
   Step     Total Energy     Delta E     MAX Force     RMS Force      MAX Disp      RMS Disp    ~
  --------------------------------------------------------------------------------------------- ~
    Convergence Criteria    1.00e-06 *    3.00e-04 *             o    1.20e-03 *             o  ~
  --------------------------------------------------------------------------------------------- ~
      1    -582.12874235   -5.82e+02      3.06e-02      6.93e-03 o    1.27e-01      3.53e-02 o  ~
  ---------------------------------------------------------------------------------------------

	Writing optimization data to binary file.
	Structure for next step:
	Cartesian Geometry (in Angstrom)
	    C     0.7579251548   1.0491091342  -3.5458769930
	    C    -0.6541020213   1.1413023417  -3.4406397292
	    C     1.5516687243   0.6789612650  -2.4619007736
	    C    -1.3277607241   0.8589695763  -2.2499372388
	    C     0.8955876016   0.3927908842  -1.2495671892
	    C    -0.5227592085   0.4774603406  -1.1671744290
	    C     0.3829642307  -0.1211749328   0.7367981437
	    C    -0.3794887219  -1.0277617705   2.8947534626
	    N     1.4343086188   0.0099127381  -0.0428365537
	    N    -0.8339918711   0.1376557566   0.1364772116
	    N    -1.4183013891  -1.6907442437   2.3680543078
	    N    -0.2208717775  -0.9510855038   4.2225455545
	    N     0.5235097443  -0.4355862260   2.0938090508
	    H     1.2411172691   1.2751170195  -4.5028864963
	    H    -1.2401968171   1.4445580200  -4.3167962341
	    H     2.6425157876   0.6091369652  -2.5432293711
	    H    -2.4192194575   0.9362586473  -2.1757327756
	    H    -1.7552903448   0.1904436479   0.5703721974
	    H    -2.1164584695  -2.1271720473   2.9679343910
	    H    -1.4004070081  -1.9757228809   1.3886721396
	    H    -0.8561878446  -1.4383999557   4.8608976976
	    H     0.5111652591  -0.3657710648   4.6333319870
	    H     1.4528834764  -0.2466263442   2.4871338401
			--------------------------
			 OPTKING Finished Execution 
			--------------------------

    Structure for next step:
    Molecular point group: c1
    Full point group: C1

    Geometry (in Angstrom), charge = 1, multiplicity = 1:

    C            0.773478964083     1.056732665885    -3.548791386860
    C           -0.638548212078     1.148925873397    -3.443554123069
    C            1.567222533548     0.686584796644    -2.464815167483
    C           -1.312206914791     0.866593108027    -2.252851632702
    C            0.911141410863     0.400414415881    -1.252481583077
    C           -0.507205399210     0.485083872246    -1.170088822868
    C            0.398518039957    -0.113551401076     0.733883749874
    C           -0.363934912655    -1.020138238815     2.891839068773
    N            1.449862428033     0.017536269815    -0.045750947612
    N           -0.818438061835     0.145279288243     0.133562817728
    N           -1.402747579855    -1.683120712019     2.365139913953
    N           -0.205317968230    -0.943461972130     4.219631160606
    N            0.539063553534    -0.427962694306     2.090894656902
    H            1.256671078403     1.282740551153    -4.505800890137
    H           -1.224643007865     1.452181551713    -4.319710627950
    H            2.658069596897     0.616760496938    -2.546143764956
    H           -2.403665648230     0.943882179010    -2.178647169457
    H           -1.739736535500     0.198067179624     0.567457803548
    H           -2.100904660196    -2.119548515596     2.965019997139
    H           -1.384853198817    -1.968099349243     1.385757745742
    H           -0.840634035374    -1.430776423967     4.857983303763
    H            0.526719068393    -0.358147533067     4.630417593118
    H            1.468437285658    -0.239002812526     2.484219446242

gradient() will perform analytic gradient computation.
    SCF Algorithm Type (re)set to DF.

*** tstart() called on c-19-414.local
*** at Mon May  1 19:08:35 2017


         ---------------------------------------------------------
                                   SCF
            by Justin Turney, Rob Parrish, and Andy Simmonett
                              RHF Reference
                        1 Threads,   5000 MiB Core
         ---------------------------------------------------------

  ==> Geometry <==

    Molecular point group: c1
    Full point group: C1

    Geometry (in Angstrom), charge = 1, multiplicity = 1:

       Center              X                  Y                   Z               Mass       
    ------------   -----------------  -----------------  -----------------  -----------------
           C          0.773478964083     1.056732665885    -3.548791386860    12.000000000000
           C         -0.638548212078     1.148925873397    -3.443554123069    12.000000000000
           C          1.567222533548     0.686584796644    -2.464815167483    12.000000000000
           C         -1.312206914791     0.866593108027    -2.252851632702    12.000000000000
           C          0.911141410863     0.400414415881    -1.252481583077    12.000000000000
           C         -0.507205399210     0.485083872246    -1.170088822868    12.000000000000
           C          0.398518039957    -0.113551401076     0.733883749874    12.000000000000
           C         -0.363934912655    -1.020138238815     2.891839068773    12.000000000000
           N          1.449862428033     0.017536269815    -0.045750947612    14.003074004780
           N         -0.818438061835     0.145279288243     0.133562817728    14.003074004780
           N         -1.402747579855    -1.683120712019     2.365139913953    14.003074004780
           N         -0.205317968230    -0.943461972130     4.219631160606    14.003074004780
           N          0.539063553534    -0.427962694306     2.090894656902    14.003074004780
           H          1.256671078403     1.282740551153    -4.505800890137     1.007825032070
           H         -1.224643007865     1.452181551713    -4.319710627950     1.007825032070
           H          2.658069596897     0.616760496938    -2.546143764956     1.007825032070
           H         -2.403665648230     0.943882179010    -2.178647169457     1.007825032070
           H         -1.739736535500     0.198067179624     0.567457803548     1.007825032070
           H         -2.100904660196    -2.119548515596     2.965019997139     1.007825032070
           H         -1.384853198817    -1.968099349243     1.385757745742     1.007825032070
           H         -0.840634035374    -1.430776423967     4.857983303763     1.007825032070
           H          0.526719068393    -0.358147533067     4.630417593118     1.007825032070
           H          1.468437285658    -0.239002812526     2.484219446242     1.007825032070

  Running in c1 symmetry.

  Rotational constants: A =      0.08907  B =      0.01391  C =      0.01236 [cm^-1]
  Rotational constants: A =   2670.24222  B =    417.07151  C =    370.62740 [MHz]
  Nuclear repulsion =  755.028172917074926

  Charge       = 1
  Multiplicity = 1
  Electrons    = 92
  Nalpha       = 46
  Nbeta        = 46

  ==> Algorithm <==

  SCF Algorithm Type is DF.
  DIIS enabled.
  MOM disabled.
  Fractional occupation disabled.
  Guess Type is READ.
  Energy threshold   = 1.00e-10
  Density threshold  = 1.00e-10
  Integral threshold = 0.00e+00

  ==> Primary Basis <==

  Basis Set: DEF2-SV(P)
    Number of shells: 98
    Number of basis function: 202
    Number of Cartesian functions: 215
    Spherical Harmonics?: true
    Max angular momentum: 2

  ==> Pre-Iterations <==

   -------------------------------------------------------
    Irrep   Nso     Nmo     Nalpha   Nbeta   Ndocc  Nsocc
   -------------------------------------------------------
     A        202     202       0       0       0       0
   -------------------------------------------------------
    Total     202     202      46      46      46       0
   -------------------------------------------------------

  ==> Integral Setup <==

  ==> DFJK: Density-Fitted J/K Matrices <==

    J tasked:                  Yes
    K tasked:                  Yes
    wK tasked:                  No
    OpenMP threads:              1
    Integrals threads:           1
    Memory (MB):              3576
    Algorithm:                Core
    Integral Cache:           NONE
    Schwarz Cutoff:          1E-12
    Fitting Condition:       1E-12

   => Auxiliary Basis Set <=

  Basis Set: 
    Number of shells: 385
    Number of basis function: 1165
    Number of Cartesian functions: 1377
    Spherical Harmonics?: true
    Max angular momentum: 4

  Minimum eigenvalue in the overlap matrix is 2.6293285647E-04.
  Using Symmetric Orthogonalization.
  SCF Guess: Reading in previously saved MOs, projecting if necessary.

  Using orbitals from previous SCF, no projection.
  Recomputing DOCC and SOCC from number of alpha and beta electrons from previous calculation.
              A 
    DOCC [    46 ]

  ==> Iterations <==

                           Total Energy        Delta E     RMS |[F,P]|

   @DF-RHF iter   0:  -580.21554674891308   -5.80216e+02   1.46017e-03 
   @DF-RHF iter   1:  -580.35352699424652   -1.37980e-01   2.74550e-04 
   @DF-RHF iter   2:  -580.35547567207209   -1.94868e-03   1.45303e-04 DIIS
   @DF-RHF iter   3:  -580.35591781277731   -4.42141e-04   4.75698e-05 DIIS
   @DF-RHF iter   4:  -580.35601110463767   -9.32919e-05   1.74089e-05 DIIS
   @DF-RHF iter   5:  -580.35602063001670   -9.52538e-06   5.57330e-06 DIIS
   @DF-RHF iter   6:  -580.35602253823640   -1.90822e-06   2.15026e-06 DIIS
   @DF-RHF iter   7:  -580.35602283253979   -2.94303e-07   7.86592e-07 DIIS
   @DF-RHF iter   8:  -580.35602287899314   -4.64534e-08   3.29937e-07 DIIS
   @DF-RHF iter   9:  -580.35602288886253   -9.86938e-09   1.50377e-07 DIIS
   @DF-RHF iter  10:  -580.35602289090343   -2.04091e-09   6.25210e-08 DIIS
   @DF-RHF iter  11:  -580.35602289133476   -4.31328e-10   2.60064e-08 DIIS
   @DF-RHF iter  12:  -580.35602289139865   -6.38920e-11   1.20464e-08 DIIS
   @DF-RHF iter  13:  -580.35602289141093   -1.22782e-11   4.59462e-09 DIIS
   @DF-RHF iter  14:  -580.35602289141366   -2.72848e-12   1.66493e-09 DIIS
   @DF-RHF iter  15:  -580.35602289141343    2.27374e-13   5.25617e-10 DIIS
   @DF-RHF iter  16:  -580.35602289141320    2.27374e-13   2.11938e-10 DIIS
   @DF-RHF iter  17:  -580.35602289141320    0.00000e+00   9.62371e-11 DIIS

  ==> Post-Iterations <==

    Orbital Energies (a.u.)
    -----------------------

    Doubly Occupied:                                                      

       1A    -15.809933     2A    -15.805304     3A    -15.804198  
       4A    -15.762167     5A    -15.688527     6A    -11.623204  
       7A    -11.507869     8A    -11.395405     9A    -11.373752  
      10A    -11.348843    11A    -11.340665    12A    -11.339699  
      13A    -11.332060    14A     -1.551535    15A     -1.482105  
      16A     -1.400976    17A     -1.391848    18A     -1.312179  
      19A     -1.230791    20A     -1.126606    21A     -1.107721  
      22A     -1.064633    23A     -1.009186    24A     -0.994384  
      25A     -0.966456    26A     -0.941447    27A     -0.921809  
      28A     -0.881217    29A     -0.875917    30A     -0.865412  
      31A     -0.821573    32A     -0.817514    33A     -0.790328  
      34A     -0.758071    35A     -0.731683    36A     -0.711527  
      37A     -0.709837    38A     -0.652785    39A     -0.640353  
      40A     -0.626474    41A     -0.621862    42A     -0.581616  
      43A     -0.573490    44A     -0.554291    45A     -0.425198  
      46A     -0.411568  

    Virtual:                                                              

      47A     -0.044054    48A     -0.018978    49A      0.020419  
      50A      0.026344    51A      0.033721    52A      0.047593  
      53A      0.055452    54A      0.070310    55A      0.095844  
      56A      0.102556    57A      0.108177    58A      0.138880  
      59A      0.167163    60A      0.188079    61A      0.195293  
      62A      0.211275    63A      0.263133    64A      0.265797  
      65A      0.285225    66A      0.298999    67A      0.308845  
      68A      0.326926    69A      0.345861    70A      0.362910  
      71A      0.372741    72A      0.376529    73A      0.397851  
      74A      0.429288    75A      0.443527    76A      0.474701  
      77A      0.503290    78A      0.514018    79A      0.535391  
      80A      0.550576    81A      0.559271    82A      0.571216  
      83A      0.574543    84A      0.581605    85A      0.586744  
      86A      0.597323    87A      0.610101    88A      0.625897  
      89A      0.627415    90A      0.657424    91A      0.677346  
      92A      0.690868    93A      0.741232    94A      0.743354  
      95A      0.751799    96A      0.776442    97A      0.781060  
      98A      0.817995    99A      0.818474   100A      0.825622  
     101A      0.830061   102A      0.834915   103A      0.839961  
     104A      0.846391   105A      0.857923   106A      0.873281  
     107A      0.880295   108A      0.891395   109A      0.893453  
     110A      0.915990   111A      0.927544   112A      0.935785  
     113A      0.946235   114A      0.961963   115A      0.966796  
     116A      0.999274   117A      1.011594   118A      1.024070  
     119A      1.034942   120A      1.060539   121A      1.078195  
     122A      1.119268   123A      1.139997   124A      1.189108  
     125A      1.203732   126A      1.238546   127A      1.278062  
     128A      1.289798   129A      1.320716   130A      1.366830  
     131A      1.379030   132A      1.392846   133A      1.413987  
     134A      1.427851   135A      1.471638   136A      1.494091  
     137A      1.536943   138A      1.553187   139A      1.565749  
     140A      1.583560   141A      1.619740   142A      1.641853  
     143A      1.656922   144A      1.666853   145A      1.682593  
     146A      1.704681   147A      1.729095   148A      1.904787  
     149A      1.952462   150A      1.977471   151A      2.006109  
     152A      2.042183   153A      2.088384   154A      2.102124  
     155A      2.123651   156A      2.164743   157A      2.169533  
     158A      2.176865   159A      2.216594   160A      2.223906  
     161A      2.236587   162A      2.261303   163A      2.268613  
     164A      2.291351   165A      2.307753   166A      2.324655  
     167A      2.422151   168A      2.427329   169A      2.450522  
     170A      2.469274   171A      2.490726   172A      2.527039  
     173A      2.572001   174A      2.622913   175A      2.633560  
     176A      2.646026   177A      2.671487   178A      2.688526  
     179A      2.698322   180A      2.735696   181A      2.780939  
     182A      2.821717   183A      2.853833   184A      2.880290  
     185A      2.884164   186A      2.908426   187A      2.926417  
     188A      2.947130   189A      2.973717   190A      2.993472  
     191A      3.026953   192A      3.032916   193A      3.074242  
     194A      3.132014   195A      3.155609   196A      3.281749  
     197A      3.367459   198A      3.401066   199A      3.504003  
     200A      3.538088   201A      3.598410   202A      3.804654  

    Final Occupation by Irrep:
              A 
    DOCC [    46 ]

  Energy converged.

  @DF-RHF Final Energy:  -580.35602289141320

   => Energetics <=

    Nuclear Repulsion Energy =            755.0281729170749259
    One-Electron Energy =               -2271.4003522776583850
    Two-Electron Energy =                 936.0161564691702551
    DFT Exchange-Correlation Energy =       0.0000000000000000
    Empirical Dispersion Energy =           0.0000000000000000
    PCM Polarization Energy =               0.0000000000000000
    EFP Energy =                            0.0000000000000000
    Total Energy =                       -580.3560228914132040


  Saving occupied orbitals to File 180.

*** tstop() called on c-19-414.local at Mon May  1 19:08:55 2017
Module time:
	user time   =      16.04 seconds =       0.27 minutes
	system time =       0.73 seconds =       0.01 minutes
	total time  =         20 seconds =       0.33 minutes
Total time:
	user time   =     100.31 seconds =       1.67 minutes
	system time =       5.63 seconds =       0.09 minutes
	total time  =        165 seconds =       2.75 minutes


Properties will be evaluated at   0.000000,   0.000000,   0.000000 Bohr

Properties computed using the SCF density matrix

  Nuclear Dipole Moment: (a.u.)
     X:    -3.5466      Y:    -1.5121      Z:     3.1062

  Electronic Dipole Moment: (a.u.)
     X:     1.6966      Y:    -0.1899      Z:     1.9349

  Dipole Moment: (a.u.)
     X:    -1.8500      Y:    -1.7020      Z:     5.0411     Total:     5.6331

  Dipole Moment: (Debye)
     X:    -4.7022      Y:    -4.3262      Z:    12.8133     Total:    14.3180


  //>>>>>>>>>>>>>>>>>>>>>>>>>>>>>>>>>>>//
  //               DFMP2               //
  //<<<<<<<<<<<<<<<<<<<<<<<<<<<<<<<<<<<//


*** tstart() called on c-19-414.local
*** at Mon May  1 19:08:55 2017


*** tstop() called on c-19-414.local at Mon May  1 19:08:55 2017
Module time:
	user time   =       0.20 seconds =       0.00 minutes
	system time =       0.00 seconds =       0.00 minutes
	total time  =          0 seconds =       0.00 minutes
Total time:
	user time   =     100.52 seconds =       1.68 minutes
	system time =       5.63 seconds =       0.09 minutes
	total time  =        165 seconds =       2.75 minutes
	 --------------------------------------------------------
	                          DF-MP2                         
	      2nd-Order Density-Fitted Moller-Plesset Theory     
	              RMP2 Wavefunction,   1 Threads             
	                                                         
	        Rob Parrish, Justin Turney, Andy Simmonett,      
	           Ed Hohenstein, and C. David Sherrill          
	 --------------------------------------------------------

   => Auxiliary Basis Set <=

  Basis Set: DEF2-SV(P)-RI
    Number of shells: 268
    Number of basis function: 764
    Number of Cartesian functions: 865
    Spherical Harmonics?: true
    Max angular momentum: 3

	 --------------------------------------------------------
	                 NBF =   202, NAUX =   764
	 --------------------------------------------------------
	   CLASS    FOCC     OCC    AOCC    AVIR     VIR    FVIR
	   PAIRS      13      46      33     156     156       0
	 --------------------------------------------------------

DGAS Warning! /src/lib/libfock/apps.cc:80 is not currently checking restricted

         ------------------------------------------------------------
                                     CPHF                           
                                  Rob Parrish                       
         ------------------------------------------------------------

  ==> Geometry <==

    Molecular point group: c1
    Full point group: C1

    Geometry (in Angstrom), charge = 1, multiplicity = 1:

       Center              X                  Y                   Z               Mass       
    ------------   -----------------  -----------------  -----------------  -----------------
           C          0.773478964083     1.056732665885    -3.548791386860    12.000000000000
           C         -0.638548212078     1.148925873397    -3.443554123069    12.000000000000
           C          1.567222533548     0.686584796644    -2.464815167483    12.000000000000
           C         -1.312206914791     0.866593108027    -2.252851632702    12.000000000000
           C          0.911141410863     0.400414415881    -1.252481583077    12.000000000000
           C         -0.507205399210     0.485083872246    -1.170088822868    12.000000000000
           C          0.398518039957    -0.113551401076     0.733883749874    12.000000000000
           C         -0.363934912655    -1.020138238815     2.891839068773    12.000000000000
           N          1.449862428033     0.017536269815    -0.045750947612    14.003074004780
           N         -0.818438061835     0.145279288243     0.133562817728    14.003074004780
           N         -1.402747579855    -1.683120712019     2.365139913953    14.003074004780
           N         -0.205317968230    -0.943461972130     4.219631160606    14.003074004780
           N          0.539063553534    -0.427962694306     2.090894656902    14.003074004780
           H          1.256671078403     1.282740551153    -4.505800890137     1.007825032070
           H         -1.224643007865     1.452181551713    -4.319710627950     1.007825032070
           H          2.658069596897     0.616760496938    -2.546143764956     1.007825032070
           H         -2.403665648230     0.943882179010    -2.178647169457     1.007825032070
           H         -1.739736535500     0.198067179624     0.567457803548     1.007825032070
           H         -2.100904660196    -2.119548515596     2.965019997139     1.007825032070
           H         -1.384853198817    -1.968099349243     1.385757745742     1.007825032070
           H         -0.840634035374    -1.430776423967     4.857983303763     1.007825032070
           H          0.526719068393    -0.358147533067     4.630417593118     1.007825032070
           H          1.468437285658    -0.239002812526     2.484219446242     1.007825032070

  Nuclear repulsion =  755.028172917074926
  Reference energy  = -580.356022891413204

  ==> Basis Set <==

  Basis Set: DEF2-SV(P)
    Number of shells: 98
    Number of basis function: 202
    Number of Cartesian functions: 215
    Spherical Harmonics?: true
    Max angular momentum: 2

  ==> CGRSolver (by Rob Parrish) <==

   Number of roots    =         1
   Preconditioning    =    JACOBI
   Convergence cutoff =     1E-06
   Maximum iterations =       100

  ==> CPHFRHamiltonian (by Rob Parrish) <== 

  ==> DFJK: Density-Fitted J/K Matrices <==

    J tasked:                  Yes
    K tasked:                  Yes
    wK tasked:                  No
    OpenMP threads:              1
    Integrals threads:           1
    Memory (MB):              3576
    Algorithm:                Core
    Integral Cache:           NONE
    Schwarz Cutoff:          1E-12
    Fitting Condition:       1E-12

   => Auxiliary Basis Set <=

  Basis Set: 
    Number of shells: 385
    Number of basis function: 1165
    Number of Cartesian functions: 1377
    Spherical Harmonics?: true
    Max angular momentum: 4

  ==> CPHF Iterations <==

  => Iterations <=

             Iter  Converged  Remaining    Residual
  CGR           1          0          1   1.255E-01
  CGR           2          0          1   3.856E-02
  CGR           3          0          1   2.017E-02
  CGR           4          0          1   6.050E-03
  CGR           5          0          1   3.298E-03
  CGR           6          0          1   1.172E-03
  CGR           7          0          1   4.660E-04
  CGR           8          0          1   1.637E-04
  CGR           9          0          1   5.894E-05
  CGR          10          0          1   2.256E-05
  CGR          11          0          1   5.949E-06
  CGR          12          0          1   1.918E-06
  CGR          13          1          0   7.947E-07

    CGRSolver converged.

  ==> DFCorrGrad: Density-Fitted Correlated Gradients <==

    OpenMP threads:              1
    Integrals threads:           1
    Memory (MB):              3576
    Schwarz Cutoff:          0E+00
    Fitting Condition:       1E-12

   => Auxiliary Basis Set <=

  Basis Set: 
    Number of shells: 385
    Number of basis function: 1165
    Number of Cartesian functions: 1377
    Spherical Harmonics?: true
    Max angular momentum: 4

	-----------------------------------------------------------
	 ==================> DF-MP2 Energies <==================== 
	-----------------------------------------------------------
	 Reference Energy          =    -580.3560228914132040 [Eh]
	 Singles Energy            =      -0.0000000000000001 [Eh]
	 Same-Spin Energy          =      -0.4877079937071575 [Eh]
	 Opposite-Spin Energy      =      -1.2948786839474296 [Eh]
	 Correlation Energy        =      -1.7825866776545871 [Eh]
	 Total Energy              =    -582.1386095690677394 [Eh]
	-----------------------------------------------------------
	 ================> DF-SCS-MP2 Energies <================== 
	-----------------------------------------------------------
	 SCS Same-Spin Scale       =       0.3333333333333333 [-]
	 SCS Opposite-Spin Scale   =       1.2000000000000000 [-]
	 SCS Same-Spin Energy      =      -0.1625693312357192 [Eh]
	 SCS Opposite-Spin Energy  =      -1.5538544207369154 [Eh]
	 SCS Correlation Energy    =      -1.7164237519726346 [Eh]
	 SCS Total Energy          =    -582.0724466433858879 [Eh]
	-----------------------------------------------------------


  -Total Gradient:
     Atom            X                  Y                   Z
    ------   -----------------  -----------------  -----------------
       1        0.000123653853     0.000134519269    -0.000965333082
       2        0.000794122840     0.000122140539    -0.000146967712
       3        0.001888256009     0.000169656372     0.000881015834
       4       -0.002515374696     0.000386925651     0.001260631722
       5        0.002752202838    -0.002796628437     0.008050853873
       6       -0.000890286216    -0.002956117521     0.006676904415
       7       -0.002841908764     0.000270212852     0.009294661352
       8       -0.005934398225     0.003501654012     0.000193816084
       9        0.011405893417     0.002980577801    -0.011162246797
      10       -0.008306098885     0.003971660971    -0.005606078570
      11        0.002290482063    -0.003690513032    -0.001328923784
      12        0.001791333889     0.001094652217     0.000033127360
      13        0.001574475354     0.001969113095    -0.015977135366
      14        0.001097646101    -0.000373499125     0.000524915739
      15       -0.001016343947     0.000045168436     0.000000607399
      16        0.001011283327     0.000033658778    -0.000987896276
      17       -0.001013955258     0.000125563254     0.000216054815
      18       -0.003039257505    -0.002434975511     0.000459002386
      19       -0.000153591268    -0.000778233925     0.000583112143
      20       -0.001605983799     0.000242719428    -0.000539350159
      21       -0.005579128094    -0.001186061853     0.002726169904
      22        0.004962854608     0.001405147761     0.001543106932
      23        0.003204122357    -0.002237341034     0.004269951793


			-----------------------------------------
			 OPTKING 2.0: for geometry optimizations 
			  - R.A. King,  Bethel University        
			-----------------------------------------

	Previous internal coordinate definitions found.
	---Fragment 1 Geometry and Gradient---
	 C           1.4616634117        1.9969353342       -6.7062438239
	 C          -1.2066812435        2.1711552477       -6.5073742164
	 C           2.9616213777        1.2974572327       -4.6578256347
	 C          -2.4797116986        1.6376236428       -4.2572726038
	 C           1.7218077349        0.7566735857       -2.3668471785
	 C          -0.9584792976        0.9166756700       -2.2111474264
	 C           0.7530899545       -0.2145810500        1.3868393006
	 C          -0.6877373151       -1.9277818890        5.4647838604
	 N           2.7398429193        0.0331387473       -0.0864567613
	 N          -1.5466237936        0.2745380676        0.2523971470
	 N          -2.6508087595       -3.1806371943        4.4694667033
	 N          -0.3879947301       -1.7828847441        7.9739472753
	 N           1.0186824844       -0.8087322873        3.9512182743
	 H           2.3747641773        2.4240283412       -8.5147296917
	 H          -2.3142398954        2.7442254280       -8.1630700601
	 H           5.0230235803        1.1655084288       -4.8115144107
	 H          -4.5422697902        1.7836788200       -4.1170464905
	 H          -3.2876255955        0.3742927254        1.0723398407
	 H          -3.9701344391       -4.0053662198        5.6030757731
	 H          -2.6169932800       -3.7191687724        2.6187026260
	 H          -1.5885681048       -2.7037755987        9.1802580022
	 H           0.9953547882       -0.6768007527        8.7502211319
	 H           2.7749443132       -0.4516498607        4.6944944074
	             0.0001236539        0.0001345193       -0.0009653331
	             0.0007941228        0.0001221405       -0.0001469677
	             0.0018882560        0.0001696564        0.0008810158
	            -0.0025153747        0.0003869257        0.0012606317
	             0.0027522028       -0.0027966284        0.0080508539
	            -0.0008902862       -0.0029561175        0.0066769044
	            -0.0028419088        0.0002702129        0.0092946614
	            -0.0059343982        0.0035016540        0.0001938161
	             0.0114058934        0.0029805778       -0.0111622468
	            -0.0083060989        0.0039716610       -0.0056060786
	             0.0022904821       -0.0036905130       -0.0013289238
	             0.0017913339        0.0010946522        0.0000331274
	             0.0015744754        0.0019691131       -0.0159771354
	             0.0010976461       -0.0003734991        0.0005249157
	            -0.0010163439        0.0000451684        0.0000006074
	             0.0010112833        0.0000336588       -0.0009878963
	            -0.0010139553        0.0001255633        0.0002160548
	            -0.0030392575       -0.0024349755        0.0004590024
	            -0.0001535913       -0.0007782339        0.0005831121
	            -0.0016059838        0.0002427194       -0.0005393502
	            -0.0055791281       -0.0011860619        0.0027261699
	             0.0049628546        0.0014051478        0.0015431069
	             0.0032041224       -0.0022373410        0.0042699518

	---Fragment 1 Intrafragment Coordinates---
	 - Coordinate -           - BOHR/RAD -       - ANG/DEG -
	 R(1,2)           =         2.681411	       1.418942
	 R(1,3)           =         2.633469	       1.393572
	 R(1,14)          =         2.070455	       1.095637
	 R(2,4)           =         2.639739	       1.396889
	 R(2,15)          =         2.072782	       1.096869
	 R(3,5)           =         2.660482	       1.407867
	 R(3,16)          =         2.071330	       1.096101
	 R(4,6)           =         2.649631	       1.402124
	 R(4,17)          =         2.072472	       1.096705
	 R(5,6)           =         2.689569	       1.423259
	 R(5,9)           =         2.600015	       1.375869
	 R(6,10)          =         2.612912	       1.382693
	 R(7,9)           =         2.485790	       1.315424
	 R(7,10)          =         2.610532	       1.381434
	 R(7,13)          =         2.645675	       1.400031
	 R(8,11)          =         2.532578	       1.340183
	 R(8,12)          =         2.531154	       1.339429
	 R(8,13)          =         2.540673	       1.344466
	 R(10,18)         =         1.927004	       1.019727
	 R(11,19)         =         1.925063	       1.018699
	 R(11,20)         =         1.927819	       1.020158
	 R(12,21)         =         1.935097	       1.024009
	 R(12,22)         =         1.933825	       1.023336
	 R(13,23)         =         1.940212	       1.026716
	 B(1,2,4)         =         2.129389	     122.004980
	 B(1,2,15)        =         2.083404	     119.370277
	 B(1,3,5)         =         2.046957	     117.282001
	 B(1,3,16)        =         2.124746	     121.738997
	 B(2,1,3)         =         2.125119	     121.760359
	 B(2,1,14)        =         2.083167	     119.356681
	 B(2,4,6)         =         2.022348	     115.872012
	 B(2,4,17)        =         2.121609	     121.559222
	 B(3,1,14)        =         2.074899	     118.882931
	 B(3,5,6)         =         2.096892	     120.143036
	 B(3,5,9)         =         2.251518	     129.002479
	 B(4,2,15)        =         2.070391	     118.624664
	 B(4,6,5)         =         2.145553	     122.931150
	 B(4,6,10)        =         2.299258	     131.737783
	 B(5,3,16)        =         2.111479	     120.978853
	 B(5,6,10)        =         1.838249	     105.323924
	 B(5,9,7)         =         1.807619	     103.568941
	 B(6,4,17)        =         2.139226	     122.568594
	 B(6,5,9)         =         1.934759	     110.853497
	 B(6,10,7)        =         1.831205	     104.920346
	 B(6,10,18)       =         2.204112	     126.286300
	 B(7,10,18)       =         2.240428	     128.367049
	 B(7,13,8)        =         2.225493	     127.511372
	 B(7,13,23)       =         2.005186	     114.888708
	 B(8,11,19)       =         2.107999	     120.779430
	 B(8,11,20)       =         2.096582	     120.125296
	 B(8,12,21)       =         2.114437	     121.148340
	 B(8,12,22)       =         2.112254	     121.023246
	 B(8,13,23)       =         2.049699	     117.439101
	 B(9,7,10)        =         2.012911	     115.331287
	 B(9,7,13)        =         2.113696	     121.105865
	 B(10,7,13)       =         2.155224	     123.485260
	 B(11,8,12)       =         2.105634	     120.643967
	 B(11,8,13)       =         2.099450	     120.289622
	 B(12,8,13)       =         2.078083	     119.065403
	 B(19,11,20)      =         2.046176	     117.237224
	 B(21,12,22)      =         2.055298	     117.759918
	 D(1,2,4,6)       =        -0.001508	      -0.086374
	 D(1,2,4,17)      =         3.137509	     179.766025
	 D(1,3,5,6)       =         0.007494	       0.429398
	 D(1,3,5,9)       =        -3.141025	    -179.967453
	 D(2,1,3,5)       =         0.003859	       0.221120
	 D(2,1,3,16)      =        -3.140160	    -179.917940
	 D(2,4,6,5)       =         0.013252	       0.759312
	 D(2,4,6,10)      =         3.135249	     179.636522
	 D(3,1,2,4)       =        -0.007074	      -0.405312
	 D(3,1,2,15)      =         3.132708	     179.490967
	 D(3,5,6,4)       =        -0.016745	      -0.959407
	 D(3,5,6,10)      =         3.140009	     179.909281
	 D(3,5,9,7)       =         3.140714	     179.949673
	 D(4,2,1,14)      =         3.135615	     179.657479
	 D(4,6,5,9)       =         3.130608	     179.370611
	 D(4,6,10,7)      =        -3.123907	    -178.986687
	 D(4,6,10,18)     =        -0.104600	      -5.993132
	 D(5,3,1,14)      =        -3.138824	    -179.841381
	 D(5,6,4,17)      =        -3.125735	    -179.091449
	 D(5,6,10,7)      =         0.000632	       0.036204
	 D(5,6,10,18)     =         3.019939	     173.029759
	 D(5,9,7,10)      =         0.008067	       0.462185
	 D(5,9,7,13)      =        -3.079506	    -176.442682
	 D(6,4,2,15)      =        -3.141303	    -179.983398
[...]
	 D(3,5,6,10)      =        -3.139191	    -179.862375
	 D(3,5,9,7)       =         3.137060	     179.740291
	 D(4,2,1,14)      =        -3.138035	    -179.796172
	 D(4,6,5,9)       =         3.131181	     179.403472
	 D(4,6,10,7)      =        -3.135222	    -179.635014
	 D(4,6,10,18)     =         0.074012	       4.240604
	 D(5,3,1,14)      =        -3.141000	    -179.966019
	 D(5,6,4,17)      =        -3.141539	    -179.996920
	 D(5,6,10,7)      =         0.007053	       0.404134
	 D(5,6,10,18)     =        -3.066897	    -175.720248
	 D(5,9,7,10)      =        -0.006098	      -0.349388
	 D(5,9,7,13)      =         3.123977	     178.990723
	 D(6,4,2,15)      =         3.139712	     179.892251
	 D(6,5,3,16)      =         3.135959	     179.677208
	 D(6,5,9,7)       =         0.010515	       0.602491
	 D(6,10,7,9)      =        -0.000706	      -0.040446
	 D(6,10,7,13)     =        -3.131145	    -179.401421
	 D(7,13,8,11)     =         0.067411	       3.862344
	 D(7,13,8,12)     =        -3.092563	    -177.190781
	 D(8,13,7,9)      =        -0.197777	     -11.331799
	 D(8,13,7,10)     =         2.931484	     167.961671
	 D(9,5,3,16)      =         0.010801	       0.618879
	 D(9,5,6,10)      =        -0.011012	      -0.630923
	 D(9,7,10,18)     =         3.071739	     175.997657
	 D(9,7,13,23)     =         2.731049	     156.477603
	 D(10,6,4,17)     =         0.000837	       0.047968
	 D(10,7,13,23)    =        -0.422875	     -24.228927
	 D(11,8,12,21)    =         0.083893	       4.806696
	 D(11,8,12,22)    =        -2.871171	    -164.505981
	 D(11,8,13,23)    =        -2.862213	    -163.992704
	 D(12,8,11,19)    =         0.166800	       9.556924
	 D(12,8,11,20)    =        -3.037574	    -174.040189
	 D(12,8,13,23)    =         0.261000	      14.954171
	 D(13,7,10,18)    =        -0.058701	      -3.363318
	 D(13,8,11,19)    =        -2.993969	    -171.541765
	 D(13,8,11,20)    =         0.084843	       4.861121
	 D(13,8,12,21)    =        -3.038887	    -174.115391
	 D(13,8,12,22)    =         0.289235	      16.571931
	 D(14,1,2,15)     =         0.002370	       0.135775
	 D(14,1,3,16)     =         0.001100	       0.062999
	 D(15,2,4,17)     =        -0.000773	      -0.044275
	 R(10,11)         =         7.860032	       4.159350

	Current energy   :      -582.1570264360

	Energy change for the previous step:
		Projected    :        -0.0000025009
		Actual       :        -0.0000004547
	Energy ratio indicates iffy step: Trust radius decreased to 6.250e-02.


	Performing BFGS update.
	Previous computed or guess Hessian on step 1.
	Steps to be used in Hessian update: 24 23
	Taking RFO optimization step.
	Going to follow RFO solution 1.
	Using RFO vector 1.
	Norm of target step-size    0.00386
	Projected energy change by RFO approximation:        -0.0000003022

	Back-transformation to cartesian coordinates...
	Could not converge backtransformation.
	Using first guess instead.

	--- Internal Coordinate Step in ANG or DEG, aJ/ANG or AJ/DEG ---
	 ---------------------------------------------------------------------------
	   Coordinate                Previous        Force       Change         New 
	   ----------                --------       ------       ------       ------
	    1 R(1,2)          =      1.416709    -0.000011     0.000006     1.416716
	    2 R(1,3)          =      1.393057     0.000091     0.000011     1.393067
	    3 R(1,14)         =      1.095631    -0.000007    -0.000001     1.095630
	    4 R(2,4)          =      1.394794     0.000033     0.000002     1.394796
	    5 R(2,15)         =      1.095830    -0.000004     0.000002     1.095832
	    6 R(3,5)          =      1.404918    -0.000049    -0.000001     1.404917
	    7 R(3,16)         =      1.094731     0.000010     0.000008     1.094738
	    8 R(4,6)          =      1.401368    -0.000024    -0.000000     1.401368
	    9 R(4,17)         =      1.095104     0.000029     0.000009     1.095113
	   10 R(5,6)          =      1.415739     0.000022     0.000030     1.415768
	   11 R(5,9)          =      1.387528     0.000066    -0.000010     1.387519
	   12 R(6,10)         =      1.388704     0.000171     0.000003     1.388706
	   13 R(7,9)          =      1.313027     0.000175     0.000028     1.313055
	   14 R(7,10)         =      1.362640    -0.000068     0.000027     1.362666
	   15 R(7,13)         =      1.406896    -0.000116    -0.000021     1.406874
	   16 R(8,11)         =      1.319695     0.000200     0.000039     1.319734
	   17 R(8,12)         =      1.341722    -0.000003    -0.000032     1.341690
	   18 R(8,13)         =      1.357036     0.000192     0.000019     1.357055
	   19 R(10,18)        =      1.017428     0.000056    -0.000011     1.017417
	   20 R(11,19)        =      1.017234    -0.000022    -0.000000     1.017234
	   21 R(11,20)        =      1.044343     0.000101     0.000023     1.044366
	   22 R(12,21)        =      1.016903    -0.000132    -0.000040     1.016864
	   23 R(12,22)        =      1.016257     0.000125     0.000008     1.016265
	   24 R(13,23)        =      1.018195    -0.000095    -0.000001     1.018193
	   25 B(1,2,4)        =    121.871930    -0.000000    -0.000233   121.871696
	   26 B(1,2,15)       =    119.066289     0.000000     0.001022   119.067311
	   27 B(1,3,5)        =    117.242059    -0.000000    -0.000053   117.242006
	   28 B(1,3,16)       =    121.894296    -0.000000    -0.000689   121.893607
	   29 B(2,1,3)        =    121.647685     0.000000     0.001529   121.649214
	   30 B(2,1,14)       =    118.912777     0.000000     0.000225   118.913002
	   31 B(2,4,6)        =    116.129587    -0.000000    -0.001823   116.127763
	   32 B(2,4,17)       =    121.475335     0.000000    -0.000417   121.474918
	   33 B(3,1,14)       =    119.439359    -0.000000    -0.001780   119.437579
	   34 B(3,5,6)        =    120.470188    -0.000000    -0.002698   120.467490
	   35 B(3,5,9)        =    129.800260     0.000000     0.000700   129.800960
	   36 B(4,2,15)       =    119.061747    -0.000000    -0.000783   119.060965
	   37 B(4,6,5)        =    122.637847     0.000001     0.003239   122.641086
	   38 B(4,6,10)       =    132.280957    -0.000001    -0.001942   132.279015
	   39 B(5,3,16)       =    120.863639     0.000000     0.000744   120.864383
	   40 B(5,6,10)       =    105.081185     0.000000    -0.001307   105.079878
	   41 B(5,9,7)        =    104.790054     0.000000    -0.000766   104.789289
	   42 B(6,4,17)       =    122.395047     0.000000     0.002245   122.397292
	   43 B(6,5,9)        =    109.724108    -0.000000     0.001726   109.725834
	   44 B(6,10,7)       =    106.283298     0.000000     0.000613   106.283911
	   45 B(6,10,18)      =    125.952073    -0.000000     0.000123   125.952196
	   46 B(7,10,18)      =    127.635950    -0.000000     0.003227   127.639177
	   47 B(7,13,8)       =    124.246851    -0.000000    -0.000264   124.246587
	   48 B(7,13,23)      =    117.546671    -0.000000     0.008373   117.555044
	   49 B(8,11,19)      =    121.223510    -0.000000     0.000135   121.223645
	   50 B(8,11,20)      =    116.753714     0.000000    -0.006648   116.747067
	   51 B(8,12,21)      =    120.618609    -0.000001    -0.005908   120.612702
	   52 B(8,12,22)      =    121.507413     0.000001     0.013100   121.520513
	   53 B(8,13,23)      =    117.137258     0.000001     0.008726   117.145983
	   54 B(9,7,10)       =    114.117409    -0.000000    -0.000498   114.116912
	   55 B(9,7,13)       =    124.359723     0.000001    -0.006550   124.353173
	   56 B(10,7,13)      =    121.519509    -0.000001     0.006971   121.526480
	   57 B(11,8,12)      =    122.133633    -0.000000    -0.005967   122.127665
	   58 B(11,8,13)      =    119.918176     0.000001     0.004656   119.922832
	   59 B(12,8,13)      =    117.939439    -0.000001     0.001476   117.940915
	   60 B(19,11,20)     =    121.921168     0.000000     0.007840   121.929008
	   61 B(21,12,22)     =    117.052160    -0.000000    -0.002650   117.049510
	   62 D(1,2,4,6)      =     -0.175799     0.000000     0.004657    -0.171142
	   63 D(1,2,4,17)     =    179.887675     0.000000    -0.000354   179.887321
	   64 D(1,3,5,6)      =     -0.294091    -0.000000    -0.012426    -0.306517
	   65 D(1,3,5,9)      =   -179.352420     0.000000     0.010826  -179.341594
	   66 D(2,1,3,5)      =      0.189599     0.000000     0.011788     0.201387
	   67 D(2,1,3,16)     =   -179.781383     0.000000     0.005492  -179.775891
	   68 D(2,4,6,5)      =      0.067193    -0.000000    -0.005515     0.061677
	   69 D(2,4,6,10)     =   -179.887920     0.000000     0.010233  -179.877687
	   70 D(3,1,2,4)      =      0.049007    -0.000000    -0.008219     0.040788
	   71 D(3,1,2,15)     =    179.980954    -0.000000    -0.001381   179.979572
	   72 D(3,5,6,4)      =      0.172020     0.000000     0.009765     0.181785
	   73 D(3,5,6,10)     =   -179.862375     0.000000    -0.002303  -179.864678
	   74 D(3,5,9,7)      =    179.740291    -0.000000    -0.008662   179.731629
	   75 D(4,2,1,14)     =   -179.796172     0.000000     0.002334  -179.793838
	   76 D(4,6,5,9)      =    179.403472    -0.000000    -0.009212   179.394259
	   77 D(4,6,10,7)     =   -179.635014     0.000000     0.007318  -179.627696
	   78 D(4,6,10,18)    =      4.240604    -0.000000    -0.052885     4.187718
	   79 D(5,3,1,14)     =   -179.966019    -0.000000     0.001184  -179.964835
	   80 D(5,6,4,17)     =   -179.996920    -0.000000    -0.000456  -179.997376
	   81 D(5,6,10,7)     =      0.404134     0.000000     0.021050     0.425184
	   82 D(5,6,10,18)    =   -175.720248    -0.000000    -0.039153  -175.759401
	   83 D(5,9,7,10)     =     -0.349388    -0.000000     0.001306    -0.348082
	   84 D(5,9,7,13)     =    178.990723     0.000000    -0.006119   178.984603
	   85 D(6,4,2,15)     =    179.892251    -0.000000    -0.002182   179.890069
	   86 D(6,5,3,16)     =    179.677208    -0.000000    -0.006200   179.671009
	   87 D(6,5,9,7)      =      0.602491     0.000000     0.012662     0.615153
	   88 D(6,10,7,9)     =     -0.040446    -0.000000    -0.014756    -0.055203
	   89 D(6,10,7,13)    =   -179.401421    -0.000000    -0.007467  -179.408888
	   90 D(7,13,8,11)    =      3.862344    -0.000000     0.008217     3.870561
	   91 D(7,13,8,12)    =   -177.190781    -0.000000     0.018104  -177.172677
	   92 D(8,13,7,9)     =    -11.331799    -0.000001    -0.092379   -11.424178
	   93 D(8,13,7,10)    =    167.961671    -0.000000    -0.100385   167.861286
	   94 D(9,5,3,16)     =      0.618879     0.000000     0.017053     0.635932
	   95 D(9,5,6,10)     =     -0.630923    -0.000000    -0.021280    -0.652204
	   96 D(9,7,10,18)    =    175.997657     0.000000     0.046628   176.044284
	   97 D(9,7,13,23)    =    156.477603    -0.000000     0.003904   156.481507
	   98 D(10,6,4,17)    =      0.047968     0.000000     0.015292     0.063260
	   99 D(10,7,13,23)   =    -24.228927    -0.000000    -0.004102   -24.233029
	  100 D(11,8,12,21)   =      4.806696     0.000000     0.003452     4.810149
	  101 D(11,8,12,22)   =   -164.505981     0.000000    -0.025553  -164.531534
	  102 D(11,8,13,23)   =   -163.992704    -0.000001    -0.087672  -164.080376
	  103 D(12,8,11,19)   =      9.556924     0.000000    -0.023415     9.533510
	  104 D(12,8,11,20)   =   -174.040189    -0.000000     0.000423  -174.039767
	  105 D(12,8,13,23)   =     14.954171    -0.000000    -0.077785    14.876386
	  106 D(13,7,10,18)   =     -3.363318     0.000000     0.053917    -3.309401
	  107 D(13,8,11,19)   =   -171.541765     0.000000    -0.013013  -171.554778
	  108 D(13,8,11,20)   =      4.861121    -0.000000     0.010824     4.871946
	  109 D(13,8,12,21)   =   -174.115391    -0.000000    -0.006788  -174.122179
	  110 D(13,8,12,22)   =     16.571931    -0.000000    -0.035793    16.536138
	  111 D(14,1,2,15)    =      0.135775     0.000000     0.009172     0.144947
	  112 D(14,1,3,16)    =      0.062999    -0.000000    -0.005112     0.057887
	  113 D(15,2,4,17)    =     -0.044275    -0.000000    -0.007193    -0.051467
	  114 R(10,11)        =      4.159350     0.000252    -0.000040     4.159309
	 ---------------------------------------------------------------------------
	Successfully symmetrized geometry.

  ==> Convergence Check <==

  Measures of convergence in internal coordinates in au.
  Criteria marked as inactive (o), active & met (*), and active & unmet ( ).
  ---------------------------------------------------------------------------------------------
   Step     Total Energy     Delta E     MAX Force     RMS Force      MAX Disp      RMS Disp   
  ---------------------------------------------------------------------------------------------
    Convergence Criteria    1.00e-06 *    3.00e-04 *             o    1.20e-03 *             o
  ---------------------------------------------------------------------------------------------
     25    -582.15702644   -4.55e-07 *    3.43e-05 *    9.47e-06 o    1.75e-03      3.61e-04 o  ~
  ---------------------------------------------------------------------------------------------


  **** Optimization is complete! (in 25 steps) ****

  ==> Optimization Summary <==

  Measures of convergence in internal coordinates in au.
  --------------------------------------------------------------------------------------------------------------- ~
   Step         Total Energy             Delta E       MAX Force       RMS Force        MAX Disp        RMS Disp  ~
  --------------------------------------------------------------------------------------------------------------- ~
      1    -582.128742351749   -582.128742351749      0.03062813      0.00692980      0.12718061      0.03526002  ~
      2    -582.138609569068     -0.009867217319      0.00989529      0.00247028      0.14715018      0.03263085  ~
      3    -582.140909313716     -0.002299744648      0.00976744      0.00142918      0.17035968      0.03141471  ~
      4    -582.141873532063     -0.000964218347      0.00981488      0.00121737      0.17181615      0.03112702  ~
      5    -582.142531703869     -0.000658171805      0.00561631      0.00112489      0.23624205      0.03842924  ~
      6    -582.143095652114     -0.000563948245      0.01022820      0.00169844      0.22739927      0.03847643  ~
      7    -582.143520048321     -0.000424396208      0.01413388      0.00222592      0.22648033      0.04288500  ~
      8    -582.144242238568     -0.000722190247      0.01968734      0.00280356      0.32786223      0.06019086  ~
      9    -582.143677230995      0.000565007573      0.04099408      0.00541367      0.15216020      0.02708824  ~
     10    -582.146131092768     -0.002453861774      0.01046827      0.00250247      0.22444972      0.05617161  ~
     11    -582.138779811480      0.007351281288      0.08191503      0.00959912      0.13120070      0.02670397  ~
     12    -582.148657401130     -0.009877589650      0.00534542      0.00117860      0.35707692      0.05870862  ~
     13    -582.150140817134     -0.001483416004      0.01993593      0.00338388      0.26252712      0.04464085  ~
     14    -582.152024509535     -0.001883692401      0.02058202      0.00316173      0.25103273      0.05270936  ~
     15    -582.153345433561     -0.001320924026      0.01762854      0.00287090      0.23557705      0.04587787  ~
     16    -582.155262790597     -0.001917357036      0.01431280      0.00217091      0.09880040      0.02040647  ~
     17    -582.156141653949     -0.000878863352      0.00841458      0.00145201      0.21254935      0.04196249  ~
     18    -582.156283231345     -0.000141577396      0.00625084      0.00155870      0.08259596      0.01165714  ~
     19    -582.156834467599     -0.000551236255      0.00176854      0.00038598      0.10341553      0.01777079  ~
     20    -582.156965897798     -0.000131430199      0.00100763      0.00023838      0.05745014      0.01076680  ~
     21    -582.157007873152     -0.000041975354      0.00052334      0.00010829      0.02613326      0.00531542  ~
     22    -582.157017574454     -0.000009701303      0.00037479      0.00008399      0.01132556      0.00340673  ~
     23    -582.157023947832     -0.000006373378      0.00024584      0.00005782      0.01082758      0.00297244  ~
     24    -582.157025981346     -0.000002033513      0.00014893      0.00003380      0.00239253      0.00055870  ~
     25    -582.157026436037     -0.000000454692      0.00003434      0.00000947      0.00175205      0.00036144  ~
  --------------------------------------------------------------------------------------------------------------- ~

	Writing optimization data to binary file.
	Final energy is   -582.1570264360372
	Final (previous) structure:
	Cartesian Geometry (in Angstrom)
	    C     0.5873007012   0.3340029410  -3.5809720891
	    C    -0.2430613639   1.4777344354  -3.4838002514
	    C     0.9058485261  -0.4350131723  -2.4639453151
	    C    -0.7836486978   1.8941712292  -2.2673313524
	    C     0.3656232086  -0.0328272707  -1.2309818426
	    C    -0.4608001385   1.1137456149  -1.1490568436
	    C    -0.1916861236   0.1762178567   0.8245336239
	    C     0.0456675593  -1.1632486262   2.8541262994
	    N     0.5189613856  -0.5906291356   0.0301996585
	    N    -0.8068311159   1.2146558265   0.1920540004
	    N     0.6670069783  -2.1210885376   2.1922540137
	    N    -0.2072666093  -1.2524842175   4.1687670337
	    N    -0.3391531556  -0.0337494681   2.2078349043
	    H     0.9887127833   0.0525372857  -4.5607954120
	    H    -0.4661072073   2.0522262008  -4.3899196828
	    H     1.5499007676  -1.3174817202  -2.5338117927
	    H    -1.4233241203   2.7804278547  -2.1993834530
	    H    -1.4465842416   1.8959064132   0.5942650923
	    H     0.8510156765  -3.0248097338   2.6214325502
	    H     0.9056649727  -1.9246775849   1.1946982444
	    H     0.1411607201  -2.0390331255   4.7110136141
	    H    -0.8762421140  -0.6375410017   4.6238447533
	    H    -0.5818531618   0.7706336021   2.7829739977
	Saving final (previous) structure.
			--------------------------
			 OPTKING Finished Execution 
			--------------------------

    Final optimized geometry and variables:
    Molecular point group: c1
    Full point group: C1

    Geometry (in Angstrom), charge = 1, multiplicity = 1:

    C            0.587300701178     0.334002940996    -3.580972089135
    C           -0.243061363931     1.477734435436    -3.483800251441
    C            0.905848526147    -0.435013172301    -2.463945315053
    C           -0.783648697774     1.894171229170    -2.267331352374
    C            0.365623208625    -0.032827270716    -1.230981842581
    C           -0.460800138466     1.113745614862    -1.149056843626
    C           -0.191686123604     0.176217856738     0.824533623898
    C            0.045667559308    -1.163248626197     2.854126299448
    N            0.518961385622    -0.590629135578     0.030199658452
    N           -0.806831115883     1.214655826535     0.192054000355
    N            0.667006978339    -2.121088537557     2.192254013697
    N           -0.207266609333    -1.252484217513     4.168767033738
    N           -0.339153155645    -0.033749468059     2.207834904256
    H            0.988712783288     0.052537285736    -4.560795411964
    H           -0.466107207256     2.052226200807    -4.389919682751
    H            1.549900767600    -1.317481720221    -2.533811792705
    H           -1.423324120332     2.780427854679    -2.199383452975
    H           -1.446584241643     1.895906413225     0.594265092271
    H            0.851015676511    -3.024809733850     2.621432550194
    H            0.905664972660    -1.924677584926     1.194698244395
    H            0.141160720112    -2.039033125454     4.711013614092
    H           -0.876242114000    -0.637541001701     4.623844753297
    H           -0.581853161825     0.770633602079     2.782973997716

	Cleaning optimization helper files.

*** Psi4 exiting successfully. Buy a developer a beer!
