
    -----------------------------------------------------------------------
          Psi4: An Open-Source Ab Initio Electronic Structure Package
                               Psi4 1.1 release

                         Git: Rev {HEAD} add49b9 


    R. M. Parrish, L. A. Burns, D. G. A. Smith, A. C. Simmonett,
    A. E. DePrince III, E. G. Hohenstein, U. Bozkaya, A. Yu. Sokolov,
    R. Di Remigio, R. M. Richard, J. F. Gonthier, A. M. James,
    H. R. McAlexander, A. Kumar, M. Saitow, X. Wang, B. P. Pritchard,
    P. Verma, H. F. Schaefer III, K. Patkowski, R. A. King, E. F. Valeev,
    F. A. Evangelista, J. M. Turney, T. D. Crawford, and C. D. Sherrill,
    J. Chem. Theory Comput. in press (2017).
    (doi: 10.1021/acs.jctc.7b00174)

    -----------------------------------------------------------------------


    Psi4 started on: Saturday, 13 October 2018 12:55PM

    Process ID:  13435
    PSIDATADIR: /beegfs/DATA/mobley/limvt/local/miniconda3/envs/oepython3/share/psi4
    Memory:     500.0 MiB
    Threads:    1
    
  ==> Input File <==

--------------------------------------------------------------------------
memory 15.0 Gb
molecule s1_1 {
  0 1
  C    -0.6759    -0.2455      0.2545
  C     0.6759     0.2455     -0.2545
  H    -1.4988     0.2847     -0.2290
  H    -0.8107    -1.3111      0.0588
  H    -0.7739    -0.0935      1.3312
  H     1.4988    -0.2847      0.2290
  H     0.8107     1.3111     -0.0588
  H     0.7739     0.0935     -1.3312
  units angstrom
}

set basis def2-tzvp
set freeze_core True
H, wfn = hessian('mp2', return_wfn=True)
wfn.hessian().print_out()

--------------------------------------------------------------------------

  Memory set to  13.970 GiB by Python driver.
hessian() will perform frequency computation by finite difference of analytic gradients.

-------------------------------------------------------------

  Using finite-differences of gradients to determine vibrational frequencies and 
  normal modes.  Resulting frequencies are only valid at stationary points.
	Generating geometries for use with 3-point formula.
	Displacement size will be 5.00e-03.
	Number of atoms is 8.
	Number of irreps is 2.
	Number of SALCS is 18.
	Index of salcs per irrep:
	 1 :  0  1  2  3  4  5  6  7  8 
	 2 :  9  10  11  12  13  14  15  16  17 
	Number of SALC's per irrep:
		 Irrep 1: 9
		 Irrep 2: 9
	Number of geometries (including reference) is 28.
	Number of displacements per irrep:
	  Irrep 1: 18
	  Irrep 2: 9

-------------------------------------------------------------

  //>>>>>>>>>>>>>>>>>>>>>>>>>>>>>>>>>>>//
  //    Loading displacement 1 of 28   //
  //<<<<<<<<<<<<<<<<<<<<<<<<<<<<<<<<<<<//
gradient() will perform analytic gradient computation.

*** tstart() called on c-16-18.local
*** at Sat Oct 13 12:55:03 2018

    SCF Algorithm Type (re)set to DF.

*** tstart() called on c-16-18.local
*** at Sat Oct 13 12:55:03 2018

   => Loading Basis Set <=

    Name: DEF2-TZVP
    Role: ORBITAL
    Keyword: BASIS
    atoms 1-2 entry C          line   122 file /beegfs/DATA/mobley/limvt/local/miniconda3/envs/oepython3/share/psi4/basis/def2-tzvp.gbs 
    atoms 3-8 entry H          line    14 file /beegfs/DATA/mobley/limvt/local/miniconda3/envs/oepython3/share/psi4/basis/def2-tzvp.gbs 


         ---------------------------------------------------------
                                   SCF
            by Justin Turney, Rob Parrish, and Andy Simmonett
                              RHF Reference
                        1 Threads,  14305 MiB Core
         ---------------------------------------------------------

  ==> Geometry <==

    Molecular point group: ci
    Full point group: Ci

    Geometry (in Angstrom), charge = 0, multiplicity = 1:

       Center              X                  Y                   Z               Mass       
    ------------   -----------------  -----------------  -----------------  -----------------
           C         -0.676406950089    -0.245590828179     0.254594158609    12.000000000000
           C          0.676406950089     0.245590828179    -0.254594158609    12.000000000000
           H         -1.498870160049     0.284498586056    -0.228791208159     1.007825032070
           H         -0.810515619490    -1.311208943858     0.058912941963     1.007825032070
           H         -0.773701989919    -0.093603992854     1.331307809998     1.007825032070
           H          1.498870160049    -0.284498586056     0.228791208159     1.007825032070
           H          0.810515619490     1.311208943858    -0.058912941963     1.007825032070
           H          0.773701989919     0.093603992854    -1.331307809998     1.007825032070

  Running in ci symmetry.

  Rotational constants: A =      2.69539  B =      0.66771  C =      0.66770 [cm^-1]
  Rotational constants: A =  80805.70702  B =  20017.40149  C =  20017.23304 [MHz]
  Nuclear repulsion =   42.257183550654716

  Charge       = 0
  Multiplicity = 1
  Electrons    = 18
  Nalpha       = 9
  Nbeta        = 9

  ==> Algorithm <==

  SCF Algorithm Type is DF.
  DIIS enabled.
  MOM disabled.
  Fractional occupation disabled.
  Guess Type is SAD.
  Energy threshold   = 1.00e-10
  Density threshold  = 1.00e-10
  Integral threshold = 0.00e+00

  ==> Primary Basis <==

  Basis Set: DEF2-TZVP
    Blend: DEF2-TZVP
    Number of shells: 46
    Number of basis function: 98
    Number of Cartesian functions: 108
    Spherical Harmonics?: true
    Max angular momentum: 3

   => Loading Basis Set <=

    Name: (DEF2-TZVP AUX)
    Role: JKFIT
    Keyword: DF_BASIS_SCF
    atoms 1-2 entry C          line   202 file /beegfs/DATA/mobley/limvt/local/miniconda3/envs/oepython3/share/psi4/basis/def2-tzvp-jkfit.gbs 
    atoms 3-8 entry H          line    22 file /beegfs/DATA/mobley/limvt/local/miniconda3/envs/oepython3/share/psi4/basis/def2-tzvp-jkfit.gbs 

  ==> Pre-Iterations <==

   -------------------------------------------------------
    Irrep   Nso     Nmo     Nalpha   Nbeta   Ndocc  Nsocc
   -------------------------------------------------------
     Ag        49      49       0       0       0       0
     Au        49      49       0       0       0       0
   -------------------------------------------------------
    Total      98      98       9       9       9       0
   -------------------------------------------------------

  ==> Integral Setup <==

  ==> DFJK: Density-Fitted J/K Matrices <==

    J tasked:                  Yes
    K tasked:                  Yes
    wK tasked:                  No
    OpenMP threads:              1
    Integrals threads:           1
    Memory (MB):             10728
    Algorithm:                Core
    Integral Cache:           NONE
    Schwarz Cutoff:          1E-12
    Fitting Condition:       1E-12

   => Auxiliary Basis Set <=

  Basis Set: (DEF2-TZVP AUX)
    Blend: DEF2-TZVP-JKFIT
    Number of shells: 86
    Number of basis function: 258
    Number of Cartesian functions: 298
    Spherical Harmonics?: true
    Max angular momentum: 4

  Minimum eigenvalue in the overlap matrix is 5.6835566983E-04.
  Using Symmetric Orthogonalization.

  SCF Guess: Superposition of Atomic Densities via on-the-fly atomic UHF.

  ==> Iterations <==

                           Total Energy        Delta E     RMS |[F,P]|

   @DF-RHF iter   0:   -79.90076810393195   -7.99008e+01   3.95667e-02 
   @DF-RHF iter   1:   -79.21257794799209    6.88190e-01   3.40435e-03 
   @DF-RHF iter   2:   -79.25564096616149   -4.30630e-02   8.79869e-04 DIIS
   @DF-RHF iter   3:   -79.25957045195736   -3.92949e-03   1.97096e-04 DIIS
   @DF-RHF iter   4:   -79.25982053705495   -2.50085e-04   4.98179e-05 DIIS
   @DF-RHF iter   5:   -79.25983396783215   -1.34308e-05   1.62441e-05 DIIS
   @DF-RHF iter   6:   -79.25983511075485   -1.14292e-06   2.09939e-06 DIIS
   @DF-RHF iter   7:   -79.25983514307147   -3.23166e-08   3.00731e-07 DIIS
   @DF-RHF iter   8:   -79.25983514370162   -6.30152e-10   5.13686e-08 DIIS
   @DF-RHF iter   9:   -79.25983514371923   -1.76072e-11   8.99858e-09 DIIS
   @DF-RHF iter  10:   -79.25983514371968   -4.54747e-13   1.14499e-09 DIIS
   @DF-RHF iter  11:   -79.25983514371977   -8.52651e-14   1.57785e-10 DIIS
   @DF-RHF iter  12:   -79.25983514371978   -1.42109e-14   2.48634e-11 DIIS

  ==> Post-Iterations <==

    Orbital Energies (a.u.)
    -----------------------

    Doubly Occupied:                                                      

       1Ag   -11.210845     1Au   -11.210240     2Ag    -1.017240  
       2Au    -0.841272     3Au    -0.596366     4Au    -0.596249  
       3Ag    -0.510305     4Ag    -0.486595     5Ag    -0.486428  

    Virtual:                                                              

       6Ag     0.141524     5Au     0.180325     6Au     0.220492  
       7Au     0.220501     7Ag     0.234272     8Ag     0.234312  
       9Ag     0.314159     8Au     0.316151    10Ag     0.354134  
      11Ag     0.354176     9Au     0.372025    10Au     0.372035  
      12Ag     0.527520    11Au     0.551885    12Au     0.615291  
      13Au     0.615349    14Au     0.625847    13Ag     0.696913  
      14Ag     0.697130    15Ag     0.754097    15Au     0.762398  
      16Au     0.841711    17Au     0.841840    16Ag     1.030591  
      17Ag     1.030815    18Ag     1.125125    18Au     1.246395  
      19Au     1.246465    19Ag     1.248008    20Ag     1.248019  
      20Au     1.339732    21Ag     1.731308    22Ag     1.766543  
      23Ag     1.766562    21Au     1.773599    22Au     1.815490  
      24Ag     1.824175    23Au     1.868316    24Au     1.868453  
      25Au     2.019563    25Ag     2.051163    26Au     2.074629  
      27Au     2.074664    26Ag     2.217464    27Ag     2.217737  
      28Ag     2.270156    28Au     2.430573    29Ag     2.586258  
      30Ag     2.638818    31Ag     2.638863    29Au     2.654569  
      30Au     2.654895    31Au     2.703329    32Au     2.703727  
      32Ag     2.839635    33Ag     2.839892    33Au     2.877435  
      34Au     2.877540    34Ag     2.934413    35Ag     2.934547  
      36Ag     3.023760    35Au     3.174484    36Au     3.281218  
      37Au     3.335036    38Au     3.335127    37Ag     3.440342  
      38Ag     3.440623    39Ag     3.493421    39Au     3.509810  
      40Au     3.586793    40Ag     3.687770    41Ag     3.688135  
      42Ag     3.812803    41Au     3.837456    42Au     3.837794  
      43Au     4.099465    44Au     4.099605    43Ag     4.254391  
      44Ag     4.254517    45Ag     4.274650    45Au     4.575568  
      46Au     4.714028    47Au     4.714469    46Ag     4.805610  
      47Ag     4.805802    48Ag     4.939823    48Au     5.109784  
      49Ag    23.374260    49Au    23.425565  

    Final Occupation by Irrep:
             Ag    Au 
    DOCC [     5,    4 ]

  Energy converged.

  @DF-RHF Final Energy:   -79.25983514371978

   => Energetics <=

    Nuclear Repulsion Energy =             42.2571835506547160
    One-Electron Energy =                -189.1229568670053141
    Two-Electron Energy =                  67.6059381726308288
    DFT Exchange-Correlation Energy =       0.0000000000000000
    Empirical Dispersion Energy =           0.0000000000000000
    PCM Polarization Energy =               0.0000000000000000
    EFP Energy =                            0.0000000000000000
    Total Energy =                        -79.2598351437197834



Properties will be evaluated at   0.000000,   0.000000,   0.000000 Bohr

Properties computed using the SCF density matrix

  Nuclear Dipole Moment: (a.u.)
     X:     0.0000      Y:     0.0000      Z:     0.0000

  Electronic Dipole Moment: (a.u.)
     X:     0.0000      Y:     0.0000      Z:     0.0000

  Dipole Moment: (a.u.)
     X:     0.0000      Y:     0.0000      Z:     0.0000     Total:     0.0000

  Dipole Moment: (Debye)
     X:     0.0000      Y:     0.0000      Z:     0.0000     Total:     0.0000


*** tstop() called on c-16-18.local at Sat Oct 13 12:55:11 2018
Module time:
	user time   =       2.14 seconds =       0.04 minutes
	system time =       0.05 seconds =       0.00 minutes
	total time  =          8 seconds =       0.13 minutes
Total time:
	user time   =       2.14 seconds =       0.04 minutes
	system time =       0.05 seconds =       0.00 minutes
	total time  =          8 seconds =       0.13 minutes

  //>>>>>>>>>>>>>>>>>>>>>>>>>>>>>>>>>>>//
  //               DFMP2               //
  //<<<<<<<<<<<<<<<<<<<<<<<<<<<<<<<<<<<//

   => Loading Basis Set <=

    Name: (DEF2-TZVP AUX)
    Role: RIFIT
    Keyword: DF_BASIS_MP2
    atoms 1-2 entry C          line   178 file /beegfs/DATA/mobley/limvt/local/miniconda3/envs/oepython3/share/psi4/basis/def2-tzvp-ri.gbs 
    atoms 3-8 entry H          line    21 file /beegfs/DATA/mobley/limvt/local/miniconda3/envs/oepython3/share/psi4/basis/def2-tzvp-ri.gbs 

	 --------------------------------------------------------
	                          DF-MP2                         
	      2nd-Order Density-Fitted Moller-Plesset Theory     
	              RMP2 Wavefunction,   1 Threads             
	                                                         
	        Rob Parrish, Justin Turney, Andy Simmonett,      
	           Ed Hohenstein, and C. David Sherrill          
	 --------------------------------------------------------

   => Auxiliary Basis Set <=

  Basis Set: (DEF2-TZVP AUX)
    Blend: DEF2-TZVP-RI
    Number of shells: 86
    Number of basis function: 242
    Number of Cartesian functions: 286
    Spherical Harmonics?: true
    Max angular momentum: 4

	 --------------------------------------------------------
	                 NBF =    98, NAUX =   242
	 --------------------------------------------------------
	   CLASS    FOCC     OCC    AOCC    AVIR     VIR    FVIR
	   PAIRS       2       9       7      89      89       0
	 --------------------------------------------------------


         ------------------------------------------------------------
                                     CPHF                           
                                  Rob Parrish                       
         ------------------------------------------------------------

  ==> Geometry <==

    Molecular point group: ci
    Full point group: Ci

    Geometry (in Angstrom), charge = 0, multiplicity = 1:

       Center              X                  Y                   Z               Mass       
    ------------   -----------------  -----------------  -----------------  -----------------
           C         -0.676406950089    -0.245590828179     0.254594158609    12.000000000000
           C          0.676406950089     0.245590828179    -0.254594158609    12.000000000000
           H         -1.498870160049     0.284498586056    -0.228791208159     1.007825032070
           H         -0.810515619490    -1.311208943858     0.058912941963     1.007825032070
           H         -0.773701989919    -0.093603992854     1.331307809998     1.007825032070
           H          1.498870160049    -0.284498586056     0.228791208159     1.007825032070
           H          0.810515619490     1.311208943858    -0.058912941963     1.007825032070
           H          0.773701989919     0.093603992854    -1.331307809998     1.007825032070

  Nuclear repulsion =   42.257183550654716
  Reference energy  =  -79.259835143719783

  ==> Basis Set <==

  Basis Set: DEF2-TZVP
    Blend: DEF2-TZVP
    Number of shells: 46
    Number of basis function: 98
    Number of Cartesian functions: 108
    Spherical Harmonics?: true
    Max angular momentum: 3

  ==> CGRSolver (by Rob Parrish) <==

   Number of roots    =         1
   Preconditioning    =    JACOBI
   Convergence cutoff =     1E-06
   Maximum iterations =       100

  ==> CPHFRHamiltonian (by Rob Parrish) <== 

  ==> DFJK: Density-Fitted J/K Matrices <==

    J tasked:                  Yes
    K tasked:                  Yes
    wK tasked:                  No
    OpenMP threads:              1
    Integrals threads:           1
    Memory (MB):             10728
    Algorithm:                Core
    Integral Cache:           NONE
    Schwarz Cutoff:          1E-12
    Fitting Condition:       1E-12

   => Auxiliary Basis Set <=

  Basis Set: (DEF2-TZVP AUX)
    Blend: DEF2-TZVP-JKFIT
    Number of shells: 86
    Number of basis function: 258
    Number of Cartesian functions: 298
    Spherical Harmonics?: true
    Max angular momentum: 4

  ==> CPHF Iterations <==

  => Iterations <=

             Iter  Converged  Remaining    Residual
  CGR           1          0          1   9.094E-02
  CGR           2          0          1   1.315E-02
  CGR           3          0          1   1.741E-03
  CGR           4          0          1   3.006E-04
  CGR           5          0          1   2.207E-05
  CGR           6          0          1   3.119E-06
  CGR           7          1          0   5.826E-07

    CGRSolver converged.

  ==> DFCorrGrad: Density-Fitted Correlated Gradients <==

    OpenMP threads:              1
    Integrals threads:           1
    Memory (MB):             10728
    Schwarz Cutoff:          0E+00
    Fitting Condition:       1E-12

   => Auxiliary Basis Set <=

  Basis Set: (DEF2-TZVP AUX)
    Blend: DEF2-TZVP-JKFIT
    Number of shells: 86
    Number of basis function: 258
    Number of Cartesian functions: 298
    Spherical Harmonics?: true
    Max angular momentum: 4

	-----------------------------------------------------------
	 ==================> DF-MP2 Energies <==================== 
	-----------------------------------------------------------
	 Reference Energy          =     -79.2598351437197834 [Eh]
	 Singles Energy            =      -0.0000000000000000 [Eh]
	 Same-Spin Energy          =      -0.0728049350753076 [Eh]
	 Opposite-Spin Energy      =      -0.2798991436405371 [Eh]
	 Correlation Energy        =      -0.3527040787158447 [Eh]
	 Total Energy              =     -79.6125392224356290 [Eh]
	-----------------------------------------------------------
	 ================> DF-SCS-MP2 Energies <================== 
	-----------------------------------------------------------
	 SCS Same-Spin Scale       =       0.3333333333333333 [-]
	 SCS Opposite-Spin Scale   =       1.2000000000000000 [-]
	 SCS Same-Spin Energy      =      -0.0242683116917692 [Eh]
	 SCS Opposite-Spin Energy  =      -0.3358789723686446 [Eh]
	 SCS Correlation Energy    =      -0.3601472840604137 [Eh]
	 SCS Total Energy          =     -79.6199824277802009 [Eh]
	-----------------------------------------------------------


  -Total Gradient:
     Atom            X                  Y                   Z
    ------   -----------------  -----------------  -----------------
       1       -0.000719701876    -0.000012215060     0.000006861614
       2        0.000719701221     0.000012214846    -0.000006861393
       3       -0.000508588694     0.000138109500    -0.000110106009
       4       -0.000211999897    -0.000673326470    -0.000042235274
       5       -0.000198364226     0.000023772170     0.000695449017
       6        0.000508589125    -0.000138109726     0.000110106211
       7        0.000212000017     0.000673326955     0.000042235337
       8        0.000198364329    -0.000023772216    -0.000695449504


*** tstop() called on c-16-18.local at Sat Oct 13 12:55:17 2018
Module time:
	user time   =       7.97 seconds =       0.13 minutes
	system time =       0.30 seconds =       0.01 minutes
	total time  =         14 seconds =       0.23 minutes
Total time:
	user time   =       7.97 seconds =       0.13 minutes
	system time =       0.30 seconds =       0.01 minutes
	total time  =         14 seconds =       0.23 minutes

  //>>>>>>>>>>>>>>>>>>>>>>>>>>>>>>>>>>>//
  //    Loading displacement 2 of 28   //
  //<<<<<<<<<<<<<<<<<<<<<<<<<<<<<<<<<<<//
gradient() will perform analytic gradient computation.

*** tstart() called on c-16-18.local
*** at Sat Oct 13 12:55:17 2018

    SCF Algorithm Type (re)set to DF.

*** tstart() called on c-16-18.local
*** at Sat Oct 13 12:55:17 2018

   => Loading Basis Set <=

    Name: DEF2-TZVP
    Role: ORBITAL
    Keyword: BASIS
    atoms 1-2 entry C          line   122 file /beegfs/DATA/mobley/limvt/local/miniconda3/envs/oepython3/share/psi4/basis/def2-tzvp.gbs 
    atoms 3-8 entry H          line    14 file /beegfs/DATA/mobley/limvt/local/miniconda3/envs/oepython3/share/psi4/basis/def2-tzvp.gbs 


         ---------------------------------------------------------
                                   SCF
            by Justin Turney, Rob Parrish, and Andy Simmonett
                              RHF Reference
                        1 Threads,  14305 MiB Core
         ---------------------------------------------------------

  ==> Geometry <==

    Molecular point group: ci
    Full point group: Ci

    Geometry (in Angstrom), charge = 0, multiplicity = 1:

       Center              X                  Y                   Z               Mass       
    ------------   -----------------  -----------------  -----------------  -----------------
           C         -0.675393049911    -0.245409171821     0.254405841391    12.000000000000
           C          0.675393049911     0.245409171821    -0.254405841391    12.000000000000
           H         -1.498729839951     0.284901413944    -0.229208791841     1.007825032070
           H         -0.810884380510    -1.310991056142     0.058687058037     1.007825032070
           H         -0.774098010081    -0.093396007146     1.331092190002     1.007825032070
           H          1.498729839951    -0.284901413944     0.229208791841     1.007825032070
           H          0.810884380510     1.310991056142    -0.058687058037     1.007825032070
           H          0.774098010081     0.093396007146    -1.331092190002     1.007825032070

  Running in ci symmetry.

  Rotational constants: A =      2.69539  B =      0.66870  C =      0.66869 [cm^-1]
  Rotational constants: A =  80805.70391  B =  20047.04719  C =  20046.87826 [MHz]
  Nuclear repulsion =   42.271576799176088

  Charge       = 0
  Multiplicity = 1
  Electrons    = 18
  Nalpha       = 9
  Nbeta        = 9

  ==> Algorithm <==

  SCF Algorithm Type is DF.
  DIIS enabled.
  MOM disabled.
  Fractional occupation disabled.
  Guess Type is SAD.
  Energy threshold   = 1.00e-10
  Density threshold  = 1.00e-10
  Integral threshold = 0.00e+00

  ==> Primary Basis <==

  Basis Set: DEF2-TZVP
    Blend: DEF2-TZVP
    Number of shells: 46
    Number of basis function: 98
    Number of Cartesian functions: 108
    Spherical Harmonics?: true
    Max angular momentum: 3

   => Loading Basis Set <=

    Name: (DEF2-TZVP AUX)
    Role: JKFIT
    Keyword: DF_BASIS_SCF
    atoms 1-2 entry C          line   202 file /beegfs/DATA/mobley/limvt/local/miniconda3/envs/oepython3/share/psi4/basis/def2-tzvp-jkfit.gbs 
    atoms 3-8 entry H          line    22 file /beegfs/DATA/mobley/limvt/local/miniconda3/envs/oepython3/share/psi4/basis/def2-tzvp-jkfit.gbs 

  ==> Pre-Iterations <==

   -------------------------------------------------------
    Irrep   Nso     Nmo     Nalpha   Nbeta   Ndocc  Nsocc
   -------------------------------------------------------
     Ag        49      49       0       0       0       0
     Au        49      49       0       0       0       0
   -------------------------------------------------------
    Total      98      98       9       9       9       0
   -------------------------------------------------------

  ==> Integral Setup <==

  ==> DFJK: Density-Fitted J/K Matrices <==

    J tasked:                  Yes
    K tasked:                  Yes
    wK tasked:                  No
    OpenMP threads:              1
    Integrals threads:           1
    Memory (MB):             10728
    Algorithm:                Core
    Integral Cache:           NONE
    Schwarz Cutoff:          1E-12
    Fitting Condition:       1E-12

   => Auxiliary Basis Set <=

  Basis Set: (DEF2-TZVP AUX)
    Blend: DEF2-TZVP-JKFIT
    Number of shells: 86
    Number of basis function: 258
    Number of Cartesian functions: 298
    Spherical Harmonics?: true
    Max angular momentum: 4

  Minimum eigenvalue in the overlap matrix is 5.6467939593E-04.
  Using Symmetric Orthogonalization.

  SCF Guess: Superposition of Atomic Densities via on-the-fly atomic UHF.

  ==> Iterations <==

                           Total Energy        Delta E     RMS |[F,P]|

   @DF-RHF iter   0:   -79.92861151759678   -7.99286e+01   3.98291e-02 
   @DF-RHF iter   1:   -79.21826717060870    7.10344e-01   3.20349e-03 
   @DF-RHF iter   2:   -79.25593784521480   -3.76707e-02   8.73350e-04 DIIS
   @DF-RHF iter   3:   -79.25952676302289   -3.58892e-03   2.46709e-04 DIIS
   @DF-RHF iter   4:   -79.25978760821452   -2.60845e-04   7.71743e-05 DIIS
   @DF-RHF iter   5:   -79.25981694806637   -2.93399e-05   1.33515e-05 DIIS
   @DF-RHF iter   6:   -79.25981812288515   -1.17482e-06   1.72099e-06 DIIS
   @DF-RHF iter   7:   -79.25981814357591   -2.06908e-08   2.62082e-07 DIIS
   @DF-RHF iter   8:   -79.25981814407574   -4.99824e-10   5.27010e-08 DIIS
   @DF-RHF iter   9:   -79.25981814409521   -1.94689e-11   9.30458e-09 DIIS
   @DF-RHF iter  10:   -79.25981814409613   -9.23706e-13   9.75772e-10 DIIS
   @DF-RHF iter  11:   -79.25981814409620   -7.10543e-14   1.39781e-10 DIIS
   @DF-RHF iter  12:   -79.25981814409603    1.70530e-13   2.44709e-11 DIIS

  ==> Post-Iterations <==

    Orbital Energies (a.u.)
    -----------------------

    Doubly Occupied:                                                      

       1Ag   -11.210856     1Au   -11.210247     2Ag    -1.017603  
       2Au    -0.841084     3Au    -0.596393     4Au    -0.596237  
       3Ag    -0.511051     4Ag    -0.486252     5Ag    -0.486052  

    Virtual:                                                              

       6Ag     0.141511     5Au     0.180312     6Au     0.220371  
       7Au     0.220381     7Ag     0.234294     8Ag     0.234337  
       9Ag     0.314019     8Au     0.316424    10Ag     0.354231  
      11Ag     0.354255     9Au     0.372056    10Au     0.372078  
      12Ag     0.527538    11Au     0.551869    12Au     0.614812  
      13Au     0.614906    14Au     0.627082    13Ag     0.696849  
      14Ag     0.697095    15Ag     0.754116    15Au     0.762305  
      16Au     0.842160    17Au     0.842265    16Ag     1.030328  
      17Ag     1.030516    18Ag     1.124686    18Au     1.246701  
      19Au     1.246783    19Ag     1.248500    20Ag     1.248513  
      20Au     1.340350    21Ag     1.731559    22Ag     1.766402  
      23Ag     1.766417    21Au     1.773891    22Au     1.815509  
      24Ag     1.824236    23Au     1.868423    24Au     1.868567  
      25Au     2.019363    25Ag     2.051921    26Au     2.074780  
      27Au     2.074813    26Ag     2.217423    27Ag     2.217642  
      28Ag     2.270543    28Au     2.430841    29Ag     2.587540  
      30Ag     2.639216    31Ag     2.639308    29Au     2.653835  
      30Au     2.654242    31Au     2.704454    32Au     2.704836  
      32Ag     2.839017    33Ag     2.839399    33Au     2.876974  
      34Au     2.877145    34Ag     2.934892    35Ag     2.934927  
      36Ag     3.024415    35Au     3.175135    36Au     3.279504  
      37Au     3.335031    38Au     3.335098    37Ag     3.439649  
      38Ag     3.439907    39Ag     3.493363    39Au     3.507666  
      40Au     3.587321    40Ag     3.687850    41Ag     3.688113  
      42Ag     3.812264    41Au     3.838558    42Au     3.838794  
      43Au     4.100341    44Au     4.100427    43Ag     4.255546  
      44Ag     4.255621    45Ag     4.276402    45Au     4.573101  
      46Au     4.715484    47Au     4.715750    46Ag     4.806555  
      47Ag     4.806666    48Ag     4.939329    48Au     5.109737  
      49Ag    23.373203    49Au    23.427511  

    Final Occupation by Irrep:
             Ag    Au 
    DOCC [     5,    4 ]

  Energy converged.

  @DF-RHF Final Energy:   -79.25981814409603

   => Energetics <=

    Nuclear Repulsion Energy =             42.2715767991760885
    One-Electron Energy =                -189.1512373544770753
    Two-Electron Energy =                  67.6198424112049423
    DFT Exchange-Correlation Energy =       0.0000000000000000
    Empirical Dispersion Energy =           0.0000000000000000
    PCM Polarization Energy =               0.0000000000000000
    EFP Energy =                            0.0000000000000000
    Total Energy =                        -79.2598181440960303



Properties will be evaluated at   0.000000,   0.000000,   0.000000 Bohr

Properties computed using the SCF density matrix

  Nuclear Dipole Moment: (a.u.)
     X:     0.0000      Y:    -0.0000      Z:     0.0000

  Electronic Dipole Moment: (a.u.)
     X:     0.0000      Y:     0.0000      Z:     0.0000

  Dipole Moment: (a.u.)
     X:     0.0000      Y:    -0.0000      Z:     0.0000     Total:     0.0000

  Dipole Moment: (Debye)
     X:     0.0000      Y:    -0.0000      Z:     0.0000     Total:     0.0000


*** tstop() called on c-16-18.local at Sat Oct 13 12:55:20 2018
Module time:
	user time   =       2.22 seconds =       0.04 minutes
	system time =       0.04 seconds =       0.00 minutes
	total time  =          3 seconds =       0.05 minutes
Total time:
	user time   =      10.21 seconds =       0.17 minutes
	system time =       0.34 seconds =       0.01 minutes
	total time  =         17 seconds =       0.28 minutes

  //>>>>>>>>>>>>>>>>>>>>>>>>>>>>>>>>>>>//
  //               DFMP2               //
  //<<<<<<<<<<<<<<<<<<<<<<<<<<<<<<<<<<<//

   => Loading Basis Set <=

    Name: (DEF2-TZVP AUX)
    Role: RIFIT
    Keyword: DF_BASIS_MP2
    atoms 1-2 entry C          line   178 file /beegfs/DATA/mobley/limvt/local/miniconda3/envs/oepython3/share/psi4/basis/def2-tzvp-ri.gbs 
    atoms 3-8 entry H          line    21 file /beegfs/DATA/mobley/limvt/local/miniconda3/envs/oepython3/share/psi4/basis/def2-tzvp-ri.gbs 

	 --------------------------------------------------------
	                          DF-MP2                         
	      2nd-Order Density-Fitted Moller-Plesset Theory     
	              RMP2 Wavefunction,   1 Threads             
	                                                         
	        Rob Parrish, Justin Turney, Andy Simmonett,      
	           Ed Hohenstein, and C. David Sherrill          
	 --------------------------------------------------------

   => Auxiliary Basis Set <=

  Basis Set: (DEF2-TZVP AUX)
    Blend: DEF2-TZVP-RI
    Number of shells: 86
    Number of basis function: 242
    Number of Cartesian functions: 286
    Spherical Harmonics?: true
    Max angular momentum: 4

	 --------------------------------------------------------
	                 NBF =    98, NAUX =   242
	 --------------------------------------------------------
	   CLASS    FOCC     OCC    AOCC    AVIR     VIR    FVIR
	   PAIRS       2       9       7      89      89       0
	 --------------------------------------------------------


         ------------------------------------------------------------
                                     CPHF                           
                                  Rob Parrish                       
         ------------------------------------------------------------

  ==> Geometry <==

    Molecular point group: ci
    Full point group: Ci

    Geometry (in Angstrom), charge = 0, multiplicity = 1:

       Center              X                  Y                   Z               Mass       
    ------------   -----------------  -----------------  -----------------  -----------------
           C         -0.675393049911    -0.245409171821     0.254405841391    12.000000000000
           C          0.675393049911     0.245409171821    -0.254405841391    12.000000000000
           H         -1.498729839951     0.284901413944    -0.229208791841     1.007825032070
           H         -0.810884380510    -1.310991056142     0.058687058037     1.007825032070
           H         -0.774098010081    -0.093396007146     1.331092190002     1.007825032070
           H          1.498729839951    -0.284901413944     0.229208791841     1.007825032070
           H          0.810884380510     1.310991056142    -0.058687058037     1.007825032070
           H          0.774098010081     0.093396007146    -1.331092190002     1.007825032070

  Nuclear repulsion =   42.271576799176088
  Reference energy  =  -79.259818144096030

  ==> Basis Set <==

  Basis Set: DEF2-TZVP
    Blend: DEF2-TZVP
    Number of shells: 46
    Number of basis function: 98
    Number of Cartesian functions: 108
    Spherical Harmonics?: true
    Max angular momentum: 3

  ==> CGRSolver (by Rob Parrish) <==

   Number of roots    =         1
   Preconditioning    =    JACOBI
   Convergence cutoff =     1E-06
   Maximum iterations =       100

  ==> CPHFRHamiltonian (by Rob Parrish) <== 

  ==> DFJK: Density-Fitted J/K Matrices <==

    J tasked:                  Yes
    K tasked:                  Yes
    wK tasked:                  No
    OpenMP threads:              1
    Integrals threads:           1
    Memory (MB):             10728
    Algorithm:                Core
    Integral Cache:           NONE
    Schwarz Cutoff:          1E-12
    Fitting Condition:       1E-12

   => Auxiliary Basis Set <=

  Basis Set: (DEF2-TZVP AUX)
    Blend: DEF2-TZVP-JKFIT
    Number of shells: 86
    Number of basis function: 258
    Number of Cartesian functions: 298
    Spherical Harmonics?: true
    Max angular momentum: 4

  ==> CPHF Iterations <==

  => Iterations <=

             Iter  Converged  Remaining    Residual
  CGR           1          0          1   9.108E-02
  CGR           2          0          1   1.316E-02
  CGR           3          0          1   1.736E-03
  CGR           4          0          1   3.007E-04
  CGR           5          0          1   2.223E-05
  CGR           6          0          1   3.179E-06
  CGR           7          1          0   5.865E-07

    CGRSolver converged.

  ==> DFCorrGrad: Density-Fitted Correlated Gradients <==

    OpenMP threads:              1
    Integrals threads:           1
    Memory (MB):             10728
    Schwarz Cutoff:          0E+00
    Fitting Condition:       1E-12

   => Auxiliary Basis Set <=

  Basis Set: (DEF2-TZVP AUX)
    Blend: DEF2-TZVP-JKFIT
    Number of shells: 86
    Number of basis function: 258
    Number of Cartesian functions: 298
    Spherical Harmonics?: true
    Max angular momentum: 4

	-----------------------------------------------------------
	 ==================> DF-MP2 Energies <==================== 
	-----------------------------------------------------------
	 Reference Energy          =     -79.2598181440960303 [Eh]
	 Singles Energy            =      -0.0000000000000000 [Eh]
	 Same-Spin Energy          =      -0.0728142255396147 [Eh]
	 Opposite-Spin Energy      =      -0.2799067237368532 [Eh]
	 Correlation Energy        =      -0.3527209492764679 [Eh]
	 Total Energy              =     -79.6125390933725043 [Eh]
	-----------------------------------------------------------
	 ================> DF-SCS-MP2 Energies <================== 
	-----------------------------------------------------------
	 SCS Same-Spin Scale       =       0.3333333333333333 [-]
	 SCS Opposite-Spin Scale   =       1.2000000000000000 [-]
	 SCS Same-Spin Energy      =      -0.0242714085132049 [Eh]
	 SCS Opposite-Spin Energy  =      -0.3358880684842239 [Eh]
	 SCS Correlation Energy    =      -0.3601594769974288 [Eh]
	 SCS Total Energy          =     -79.6199776210934544 [Eh]
	-----------------------------------------------------------


  -Total Gradient:
     Atom            X                  Y                   Z
    ------   -----------------  -----------------  -----------------
       1        0.000780351897     0.000009327837    -0.000015482378
       2       -0.000780356430    -0.000009329554     0.000015484085
       3       -0.000887177380     0.000379230151    -0.000332941769
       4       -0.000313281477    -0.000734172218    -0.000059225221
       5       -0.000298338648     0.000034047315     0.000737759596
       6        0.000887180136    -0.000379231340     0.000332942836
       7        0.000313282416     0.000734175307     0.000059225530
       8        0.000298339487    -0.000034047497    -0.000737762679


*** tstop() called on c-16-18.local at Sat Oct 13 12:55:26 2018
Module time:
	user time   =       7.85 seconds =       0.13 minutes
	system time =       0.25 seconds =       0.00 minutes
	total time  =          9 seconds =       0.15 minutes
Total time:
	user time   =      15.84 seconds =       0.26 minutes
	system time =       0.55 seconds =       0.01 minutes
	total time  =         23 seconds =       0.38 minutes

  //>>>>>>>>>>>>>>>>>>>>>>>>>>>>>>>>>>>//
  //    Loading displacement 3 of 28   //
  //<<<<<<<<<<<<<<<<<<<<<<<<<<<<<<<<<<<//
gradient() will perform analytic gradient computation.

*** tstart() called on c-16-18.local
*** at Sat Oct 13 12:55:26 2018

    SCF Algorithm Type (re)set to DF.

*** tstart() called on c-16-18.local
*** at Sat Oct 13 12:55:26 2018

   => Loading Basis Set <=

    Name: DEF2-TZVP
    Role: ORBITAL
    Keyword: BASIS
    atoms 1-2 entry C          line   122 file /beegfs/DATA/mobley/limvt/local/miniconda3/envs/oepython3/share/psi4/basis/def2-tzvp.gbs 
    atoms 3-8 entry H          line    14 file /beegfs/DATA/mobley/limvt/local/miniconda3/envs/oepython3/share/psi4/basis/def2-tzvp.gbs 


         ---------------------------------------------------------
                                   SCF
            by Justin Turney, Rob Parrish, and Andy Simmonett
                              RHF Reference
                        1 Threads,  14305 MiB Core
         ---------------------------------------------------------

  ==> Geometry <==

    Molecular point group: ci
    Full point group: Ci

    Geometry (in Angstrom), charge = 0, multiplicity = 1:

       Center              X                  Y                   Z               Mass       
    ------------   -----------------  -----------------  -----------------  -----------------
           C         -0.675900000000    -0.245872429358     0.254523588551    12.000000000000
           C          0.675900000000     0.245872429358    -0.254523588551    12.000000000000
           H         -1.498639513098     0.285460494276    -0.229104912874     1.007825032070
           H         -0.811405239566    -1.310654010333     0.059021077142     1.007825032070
           H         -0.773995381936    -0.092832464892     1.331191435135     1.007825032070
           H          1.498639513098    -0.285460494276     0.229104912874     1.007825032070
           H          0.811405239566     1.310654010333    -0.059021077142     1.007825032070
           H          0.773995381936     0.092832464892    -1.331191435135     1.007825032070

  Running in ci symmetry.

  Rotational constants: A =      2.69539  B =      0.66808  C =      0.66807 [cm^-1]
  Rotational constants: A =  80805.64384  B =  20028.50413  C =  20028.33194 [MHz]
  Nuclear repulsion =   42.262568740223159

  Charge       = 0
  Multiplicity = 1
  Electrons    = 18
  Nalpha       = 9
  Nbeta        = 9

  ==> Algorithm <==

  SCF Algorithm Type is DF.
  DIIS enabled.
  MOM disabled.
  Fractional occupation disabled.
  Guess Type is SAD.
  Energy threshold   = 1.00e-10
  Density threshold  = 1.00e-10
  Integral threshold = 0.00e+00

  ==> Primary Basis <==

  Basis Set: DEF2-TZVP
    Blend: DEF2-TZVP
    Number of shells: 46
    Number of basis function: 98
    Number of Cartesian functions: 108
    Spherical Harmonics?: true
    Max angular momentum: 3

   => Loading Basis Set <=

    Name: (DEF2-TZVP AUX)
    Role: JKFIT
    Keyword: DF_BASIS_SCF
    atoms 1-2 entry C          line   202 file /beegfs/DATA/mobley/limvt/local/miniconda3/envs/oepython3/share/psi4/basis/def2-tzvp-jkfit.gbs 
    atoms 3-8 entry H          line    22 file /beegfs/DATA/mobley/limvt/local/miniconda3/envs/oepython3/share/psi4/basis/def2-tzvp-jkfit.gbs 

  ==> Pre-Iterations <==

   -------------------------------------------------------
    Irrep   Nso     Nmo     Nalpha   Nbeta   Ndocc  Nsocc
   -------------------------------------------------------
     Ag        49      49       0       0       0       0
     Au        49      49       0       0       0       0
   -------------------------------------------------------
    Total      98      98       9       9       9       0
   -------------------------------------------------------

  ==> Integral Setup <==

  ==> DFJK: Density-Fitted J/K Matrices <==

    J tasked:                  Yes
    K tasked:                  Yes
    wK tasked:                  No
    OpenMP threads:              1
    Integrals threads:           1
    Memory (MB):             10728
    Algorithm:                Core
    Integral Cache:           NONE
    Schwarz Cutoff:          1E-12
    Fitting Condition:       1E-12

   => Auxiliary Basis Set <=

  Basis Set: (DEF2-TZVP AUX)
    Blend: DEF2-TZVP-JKFIT
    Number of shells: 86
    Number of basis function: 258
    Number of Cartesian functions: 298
    Spherical Harmonics?: true
    Max angular momentum: 4

  Minimum eigenvalue in the overlap matrix is 5.6698840258E-04.
  Using Symmetric Orthogonalization.

  SCF Guess: Superposition of Atomic Densities via on-the-fly atomic UHF.

  ==> Iterations <==

                           Total Energy        Delta E     RMS |[F,P]|

   @DF-RHF iter   0:   -79.89511848566141   -7.98951e+01   3.95229e-02 
   @DF-RHF iter   1:   -79.21167526402192    6.83443e-01   3.43295e-03 
   @DF-RHF iter   2:   -79.25555168557338   -4.38764e-02   8.84651e-04 DIIS
   @DF-RHF iter   3:   -79.25956066306955   -4.00898e-03   1.95024e-04 DIIS
   @DF-RHF iter   4:   -79.25981669858002   -2.56036e-04   3.90365e-05 DIIS
   @DF-RHF iter   5:   -79.25982755058605   -1.08520e-05   1.06532e-05 DIIS
   @DF-RHF iter   6:   -79.25982798597539   -4.35389e-07   2.21922e-06 DIIS
   @DF-RHF iter   7:   -79.25982801567531   -2.96999e-08   3.04445e-07 DIIS
   @DF-RHF iter   8:   -79.25982801631089   -6.35580e-10   5.05146e-08 DIIS
   @DF-RHF iter   9:   -79.25982801632786   -1.69678e-11   8.73481e-09 DIIS
   @DF-RHF iter  10:   -79.25982801632826   -3.97904e-13   1.15285e-09 DIIS
   @DF-RHF iter  11:   -79.25982801632837   -1.13687e-13   1.57834e-10 DIIS
   @DF-RHF iter  12:   -79.25982801632826    1.13687e-13   2.48564e-11 DIIS

  ==> Post-Iterations <==

    Orbital Energies (a.u.)
    -----------------------

    Doubly Occupied:                                                      

       1Ag   -11.210849     1Au   -11.210243     2Ag    -1.017376  
       2Au    -0.841202     3Au    -0.596521     4Au    -0.596099  
       3Ag    -0.510588     4Ag    -0.486654     5Ag    -0.486097  

    Virtual:                                                              

       6Ag     0.141519     5Au     0.180320     6Au     0.220437  
       7Au     0.220465     7Ag     0.234239     8Ag     0.234362  
       9Ag     0.314106     8Au     0.316253    10Ag     0.354145  
      11Ag     0.354231     9Au     0.372025    10Au     0.372062  
      12Ag     0.527527    11Au     0.551879    12Au     0.615026  
      13Au     0.615264    14Au     0.626313    13Ag     0.696653  
      14Ag     0.697352    15Ag     0.754105    15Au     0.762362  
      16Au     0.841774    17Au     0.842105    16Ag     1.030303  
      17Ag     1.030892    18Ag     1.124961    18Au     1.246430  
      19Au     1.246661    19Ag     1.248191    20Ag     1.248206  
      20Au     1.339963    21Ag     1.731400    22Ag     1.766473  
      23Ag     1.766526    21Au     1.773707    22Au     1.815491  
      24Ag     1.824198    23Au     1.868221    24Au     1.868640  
      25Au     2.019488    25Ag     2.051446    26Au     2.074687  
      27Au     2.074719    26Ag     2.217228    27Ag     2.217921  
      28Ag     2.270300    28Au     2.430671    29Ag     2.586733  
      30Ag     2.638890    31Ag     2.639110    29Au     2.653910  
      30Au     2.655039    31Au     2.703371    32Au     2.704519  
      32Ag     2.839052    33Ag     2.840062    33Au     2.877106  
      34Au     2.877547    34Ag     2.934580    35Ag     2.934703  
      36Ag     3.024006    35Au     3.174731    36Au     3.280569  
      37Au     3.334969    38Au     3.335180    37Ag     3.439826  
      38Ag     3.440610    39Ag     3.493402    39Au     3.509009  
      40Au     3.586989    40Ag     3.687531    41Ag     3.688397  
      42Ag     3.812599    41Au     3.837622    42Au     3.838416  
      43Au     4.099696    44Au     4.100010    43Ag     4.254752  
      44Ag     4.255006    45Ag     4.275304    45Au     4.574619  
      46Au     4.714319    47Au     4.715227    46Ag     4.805829  
      47Ag     4.806254    48Ag     4.939638    48Au     5.109771  
      49Ag    23.373864    49Au    23.426290  

    Final Occupation by Irrep:
             Ag    Au 
    DOCC [     5,    4 ]

  Energy converged.

  @DF-RHF Final Energy:   -79.25982801632826

   => Energetics <=

    Nuclear Repulsion Energy =             42.2625687402231591
    One-Electron Energy =                -189.1335355146238726
    Two-Electron Energy =                  67.6111387580724426
    DFT Exchange-Correlation Energy =       0.0000000000000000
    Empirical Dispersion Energy =           0.0000000000000000
    PCM Polarization Energy =               0.0000000000000000
    EFP Energy =                            0.0000000000000000
    Total Energy =                        -79.2598280163282567



Properties will be evaluated at   0.000000,   0.000000,   0.000000 Bohr

Properties computed using the SCF density matrix

  Nuclear Dipole Moment: (a.u.)
     X:    -0.0000      Y:    -0.0000      Z:    -0.0000

  Electronic Dipole Moment: (a.u.)
     X:     0.0000      Y:     0.0000      Z:     0.0000

  Dipole Moment: (a.u.)
     X:    -0.0000      Y:    -0.0000      Z:    -0.0000     Total:     0.0000

  Dipole Moment: (Debye)
     X:    -0.0000      Y:    -0.0000      Z:    -0.0000     Total:     0.0000


*** tstop() called on c-16-18.local at Sat Oct 13 12:55:29 2018
Module time:
	user time   =       2.20 seconds =       0.04 minutes
	system time =       0.04 seconds =       0.00 minutes
	total time  =          3 seconds =       0.05 minutes
Total time:
	user time   =      18.06 seconds =       0.30 minutes
	system time =       0.59 seconds =       0.01 minutes
	total time  =         26 seconds =       0.43 minutes

  //>>>>>>>>>>>>>>>>>>>>>>>>>>>>>>>>>>>//
  //               DFMP2               //
  //<<<<<<<<<<<<<<<<<<<<<<<<<<<<<<<<<<<//

   => Loading Basis Set <=

    Name: (DEF2-TZVP AUX)
    Role: RIFIT
    Keyword: DF_BASIS_MP2
    atoms 1-2 entry C          line   178 file /beegfs/DATA/mobley/limvt/local/miniconda3/envs/oepython3/share/psi4/basis/def2-tzvp-ri.gbs 
    atoms 3-8 entry H          line    21 file /beegfs/DATA/mobley/limvt/local/miniconda3/envs/oepython3/share/psi4/basis/def2-tzvp-ri.gbs 

	 --------------------------------------------------------
	                          DF-MP2                         
	      2nd-Order Density-Fitted Moller-Plesset Theory     
	              RMP2 Wavefunction,   1 Threads             
	                                                         
	        Rob Parrish, Justin Turney, Andy Simmonett,      
	           Ed Hohenstein, and C. David Sherrill          
	 --------------------------------------------------------

   => Auxiliary Basis Set <=

  Basis Set: (DEF2-TZVP AUX)
    Blend: DEF2-TZVP-RI
    Number of shells: 86
    Number of basis function: 242
    Number of Cartesian functions: 286
    Spherical Harmonics?: true
    Max angular momentum: 4

	 --------------------------------------------------------
	                 NBF =    98, NAUX =   242
	 --------------------------------------------------------
	   CLASS    FOCC     OCC    AOCC    AVIR     VIR    FVIR
	   PAIRS       2       9       7      89      89       0
	 --------------------------------------------------------


         ------------------------------------------------------------
                                     CPHF                           
                                  Rob Parrish                       
         ------------------------------------------------------------

  ==> Geometry <==

    Molecular point group: ci
    Full point group: Ci

    Geometry (in Angstrom), charge = 0, multiplicity = 1:

       Center              X                  Y                   Z               Mass       
    ------------   -----------------  -----------------  -----------------  -----------------
           C         -0.675900000000    -0.245872429358     0.254523588551    12.000000000000
           C          0.675900000000     0.245872429358    -0.254523588551    12.000000000000
           H         -1.498639513098     0.285460494276    -0.229104912874     1.007825032070
           H         -0.811405239566    -1.310654010333     0.059021077142     1.007825032070
           H         -0.773995381936    -0.092832464892     1.331191435135     1.007825032070
           H          1.498639513098    -0.285460494276     0.229104912874     1.007825032070
           H          0.811405239566     1.310654010333    -0.059021077142     1.007825032070
           H          0.773995381936     0.092832464892    -1.331191435135     1.007825032070

  Nuclear repulsion =   42.262568740223159
  Reference energy  =  -79.259828016328257

  ==> Basis Set <==

  Basis Set: DEF2-TZVP
    Blend: DEF2-TZVP
    Number of shells: 46
    Number of basis function: 98
    Number of Cartesian functions: 108
    Spherical Harmonics?: true
    Max angular momentum: 3

  ==> CGRSolver (by Rob Parrish) <==

   Number of roots    =         1
   Preconditioning    =    JACOBI
   Convergence cutoff =     1E-06
   Maximum iterations =       100

  ==> CPHFRHamiltonian (by Rob Parrish) <== 

  ==> DFJK: Density-Fitted J/K Matrices <==

    J tasked:                  Yes
    K tasked:                  Yes
    wK tasked:                  No
    OpenMP threads:              1
    Integrals threads:           1
    Memory (MB):             10728
    Algorithm:                Core
    Integral Cache:           NONE
    Schwarz Cutoff:          1E-12
    Fitting Condition:       1E-12

   => Auxiliary Basis Set <=

  Basis Set: (DEF2-TZVP AUX)
    Blend: DEF2-TZVP-JKFIT
    Number of shells: 86
    Number of basis function: 258
    Number of Cartesian functions: 298
    Spherical Harmonics?: true
    Max angular momentum: 4

  ==> CPHF Iterations <==

  => Iterations <=

             Iter  Converged  Remaining    Residual
  CGR           1          0          1   9.100E-02
  CGR           2          0          1   1.315E-02
  CGR           3          0          1   1.740E-03
  CGR           4          0          1   3.007E-04
  CGR           5          0          1   2.214E-05
  CGR           6          0          1   3.149E-06
  CGR           7          1          0   5.855E-07

    CGRSolver converged.

  ==> DFCorrGrad: Density-Fitted Correlated Gradients <==

    OpenMP threads:              1
    Integrals threads:           1
    Memory (MB):             10728
    Schwarz Cutoff:          0E+00
    Fitting Condition:       1E-12

   => Auxiliary Basis Set <=

  Basis Set: (DEF2-TZVP AUX)
    Blend: DEF2-TZVP-JKFIT
    Number of shells: 86
    Number of basis function: 258
    Number of Cartesian functions: 298
    Spherical Harmonics?: true
    Max angular momentum: 4

	-----------------------------------------------------------
	 ==================> DF-MP2 Energies <==================== 
	-----------------------------------------------------------
	 Reference Energy          =     -79.2598280163282567 [Eh]
	 Singles Energy            =      -0.0000000000000000 [Eh]
	 Same-Spin Energy          =      -0.0728084160181615 [Eh]
	 Opposite-Spin Energy      =      -0.2799020166086875 [Eh]
	 Correlation Energy        =      -0.3527104326268490 [Eh]
	 Total Energy              =     -79.6125384489551067 [Eh]
	-----------------------------------------------------------
	 ================> DF-SCS-MP2 Energies <================== 
	-----------------------------------------------------------
	 SCS Same-Spin Scale       =       0.3333333333333333 [-]
	 SCS Opposite-Spin Scale   =       1.2000000000000000 [-]
	 SCS Same-Spin Energy      =      -0.0242694720060538 [Eh]
	 SCS Opposite-Spin Energy  =      -0.3358824199304249 [Eh]
	 SCS Correlation Energy    =      -0.3601518919364788 [Eh]
	 SCS Total Energy          =     -79.6199799082647388 [Eh]
	-----------------------------------------------------------


  -Total Gradient:
     Atom            X                  Y                   Z
    ------   -----------------  -----------------  -----------------
       1        0.000196931799    -0.000986810608    -0.000001422571
       2       -0.000196930301     0.000986811258     0.000001422105
       3       -0.000869337961     0.000468084764    -0.000347938398
       4       -0.000280716615    -0.000268134198     0.000039866047
       5       -0.000258723336     0.000113310206     0.000777437899
       6        0.000869337026    -0.000468084341     0.000347937996
       7        0.000280716312     0.000268133062    -0.000039866193
       8        0.000258723076    -0.000113310144    -0.000777436885


*** tstop() called on c-16-18.local at Sat Oct 13 12:55:35 2018
Module time:
	user time   =       7.85 seconds =       0.13 minutes
	system time =       0.24 seconds =       0.00 minutes
	total time  =          9 seconds =       0.15 minutes
Total time:
	user time   =      23.71 seconds =       0.40 minutes
	system time =       0.79 seconds =       0.01 minutes
	total time  =         32 seconds =       0.53 minutes

  //>>>>>>>>>>>>>>>>>>>>>>>>>>>>>>>>>>>//
  //    Loading displacement 4 of 28   //
  //<<<<<<<<<<<<<<<<<<<<<<<<<<<<<<<<<<<//
gradient() will perform analytic gradient computation.

*** tstart() called on c-16-18.local
*** at Sat Oct 13 12:55:35 2018

    SCF Algorithm Type (re)set to DF.

*** tstart() called on c-16-18.local
*** at Sat Oct 13 12:55:35 2018

   => Loading Basis Set <=

    Name: DEF2-TZVP
    Role: ORBITAL
    Keyword: BASIS
    atoms 1-2 entry C          line   122 file /beegfs/DATA/mobley/limvt/local/miniconda3/envs/oepython3/share/psi4/basis/def2-tzvp.gbs 
    atoms 3-8 entry H          line    14 file /beegfs/DATA/mobley/limvt/local/miniconda3/envs/oepython3/share/psi4/basis/def2-tzvp.gbs 


         ---------------------------------------------------------
                                   SCF
            by Justin Turney, Rob Parrish, and Andy Simmonett
                              RHF Reference
                        1 Threads,  14305 MiB Core
         ---------------------------------------------------------

  ==> Geometry <==

    Molecular point group: ci
    Full point group: Ci

    Geometry (in Angstrom), charge = 0, multiplicity = 1:

       Center              X                  Y                   Z               Mass       
    ------------   -----------------  -----------------  -----------------  -----------------
           C         -0.675900000000    -0.245127570642     0.254476411449    12.000000000000
           C          0.675900000000     0.245127570642    -0.254476411449    12.000000000000
           H         -1.498960486902     0.283939505724    -0.228895087126     1.007825032070
           H         -0.809994760434    -1.311545989667     0.058578922858     1.007825032070
           H         -0.773804618064    -0.094167535108     1.331208564865     1.007825032070
           H          1.498960486902    -0.283939505724     0.228895087126     1.007825032070
           H          0.809994760434     1.311545989667    -0.058578922858     1.007825032070
           H          0.773804618064     0.094167535108    -1.331208564865     1.007825032070

  Running in ci symmetry.

  Rotational constants: A =      2.69539  B =      0.66833  C =      0.66832 [cm^-1]
  Rotational constants: A =  80805.65453  B =  20035.93080  C =  20035.75891 [MHz]
  Nuclear repulsion =   42.266174522608729

  Charge       = 0
  Multiplicity = 1
  Electrons    = 18
  Nalpha       = 9
  Nbeta        = 9

  ==> Algorithm <==

  SCF Algorithm Type is DF.
  DIIS enabled.
  MOM disabled.
  Fractional occupation disabled.
  Guess Type is SAD.
  Energy threshold   = 1.00e-10
  Density threshold  = 1.00e-10
  Integral threshold = 0.00e+00

  ==> Primary Basis <==

  Basis Set: DEF2-TZVP
    Blend: DEF2-TZVP
    Number of shells: 46
    Number of basis function: 98
    Number of Cartesian functions: 108
    Spherical Harmonics?: true
    Max angular momentum: 3

   => Loading Basis Set <=

    Name: (DEF2-TZVP AUX)
    Role: JKFIT
    Keyword: DF_BASIS_SCF
    atoms 1-2 entry C          line   202 file /beegfs/DATA/mobley/limvt/local/miniconda3/envs/oepython3/share/psi4/basis/def2-tzvp-jkfit.gbs 
    atoms 3-8 entry H          line    22 file /beegfs/DATA/mobley/limvt/local/miniconda3/envs/oepython3/share/psi4/basis/def2-tzvp-jkfit.gbs 

  ==> Pre-Iterations <==

   -------------------------------------------------------
    Irrep   Nso     Nmo     Nalpha   Nbeta   Ndocc  Nsocc
   -------------------------------------------------------
     Ag        49      49       0       0       0       0
     Au        49      49       0       0       0       0
   -------------------------------------------------------
    Total      98      98       9       9       9       0
   -------------------------------------------------------

  ==> Integral Setup <==

  ==> DFJK: Density-Fitted J/K Matrices <==

    J tasked:                  Yes
    K tasked:                  Yes
    wK tasked:                  No
    OpenMP threads:              1
    Integrals threads:           1
    Memory (MB):             10728
    Algorithm:                Core
    Integral Cache:           NONE
    Schwarz Cutoff:          1E-12
    Fitting Condition:       1E-12

   => Auxiliary Basis Set <=

  Basis Set: (DEF2-TZVP AUX)
    Blend: DEF2-TZVP-JKFIT
    Number of shells: 86
    Number of basis function: 258
    Number of Cartesian functions: 298
    Spherical Harmonics?: true
    Max angular momentum: 4

  Minimum eigenvalue in the overlap matrix is 5.6606761418E-04.
  Using Symmetric Orthogonalization.

  SCF Guess: Superposition of Atomic Densities via on-the-fly atomic UHF.

  ==> Iterations <==

                           Total Energy        Delta E     RMS |[F,P]|

   @DF-RHF iter   0:   -79.92611675004729   -7.99261e+01   3.98131e-02 
   @DF-RHF iter   1:   -79.21974661097103    7.06370e-01   3.13320e-03 
   @DF-RHF iter   2:   -79.25594309012035   -3.61965e-02   8.70193e-04 DIIS
   @DF-RHF iter   3:   -79.25955606853748   -3.61298e-03   2.41445e-04 DIIS
   @DF-RHF iter   4:   -79.25979593646765   -2.39868e-04   7.34188e-05 DIIS
   @DF-RHF iter   5:   -79.25982292412746   -2.69877e-05   1.18040e-05 DIIS
   @DF-RHF iter   6:   -79.25982381679842   -8.92671e-07   1.54216e-06 DIIS
   @DF-RHF iter   7:   -79.25982383265091   -1.58525e-08   2.38222e-07 DIIS
   @DF-RHF iter   8:   -79.25982383306238   -4.11475e-10   4.95098e-08 DIIS
   @DF-RHF iter   9:   -79.25982383308023   -1.78488e-11   8.72308e-09 DIIS
   @DF-RHF iter  10:   -79.25982383308050   -2.70006e-13   9.40583e-10 DIIS
   @DF-RHF iter  11:   -79.25982383308087   -3.69482e-13   1.31737e-10 DIIS
   @DF-RHF iter  12:   -79.25982383308092   -4.26326e-14   2.38763e-11 DIIS

  ==> Post-Iterations <==

    Orbital Energies (a.u.)
    -----------------------

    Doubly Occupied:                                                      

       1Ag   -11.210852     1Au   -11.210244     2Ag    -1.017467  
       2Au    -0.841155     3Au    -0.596500     4Au    -0.596124  
       3Ag    -0.510775     4Ag    -0.486546     5Ag    -0.486024  

    Virtual:                                                              

       6Ag     0.141516     5Au     0.180317     6Au     0.220409  
       7Au     0.220433     7Ag     0.234246     8Ag     0.234367  
       9Ag     0.314071     8Au     0.316322    10Ag     0.354157  
      11Ag     0.354263     9Au     0.372050    10Au     0.372056  
      12Ag     0.527531    11Au     0.551875    12Au     0.614926  
      13Au     0.615133    14Au     0.626623    13Ag     0.696657  
      14Ag     0.697322    15Ag     0.754109    15Au     0.762339  
      16Au     0.841870    17Au     0.842228    16Ag     1.030214  
      17Ag     1.030839    18Ag     1.124851    18Au     1.246514  
      19Au     1.246733    19Ag     1.248318    20Ag     1.248327  
      20Au     1.340118    21Ag     1.731464    22Ag     1.766439  
      23Ag     1.766488    21Au     1.773780    22Au     1.815496  
      24Ag     1.824213    23Au     1.868253    24Au     1.868663  
      25Au     2.019438    25Ag     2.051636    26Au     2.074721  
      27Au     2.074759    26Ag     2.217182    27Ag     2.217933  
      28Ag     2.270397    28Au     2.430739    29Ag     2.587055  
      30Ag     2.639040    31Ag     2.639170    29Au     2.653788  
      30Au     2.654811    31Au     2.703654    32Au     2.704797  
      32Ag     2.838992    33Ag     2.839843    33Au     2.877046  
      34Au     2.877391    34Ag     2.934619    35Ag     2.934879  
      36Ag     3.024170    35Au     3.174894    36Au     3.280139  
      37Au     3.334944    38Au     3.335196    37Ag     3.439640  
      38Ag     3.440444    39Ag     3.493386    39Au     3.508472  
      40Au     3.587122    40Ag     3.687483    41Ag     3.688459  
      42Ag     3.812464    41Au     3.837836    42Au     3.838728  
      43Au     4.099890    44Au     4.100241    43Ag     4.255003  
      44Ag     4.255322    45Ag     4.275743    45Au     4.574004  
      46Au     4.714559    47Au     4.715670    46Ag     4.806032  
      47Ag     4.806505    48Ag     4.939512    48Au     5.109759  
      49Ag    23.373599    49Au    23.426777  

    Final Occupation by Irrep:
             Ag    Au 
    DOCC [     5,    4 ]

  Energy converged.

  @DF-RHF Final Energy:   -79.25982383308092

   => Energetics <=

    Nuclear Repulsion Energy =             42.2661745226087291
    One-Electron Energy =                -189.1406205942147665
    Two-Electron Energy =                  67.6146222385251150
    DFT Exchange-Correlation Energy =       0.0000000000000000
    Empirical Dispersion Energy =           0.0000000000000000
    PCM Polarization Energy =               0.0000000000000000
    EFP Energy =                            0.0000000000000000
    Total Energy =                        -79.2598238330809153



Properties will be evaluated at   0.000000,   0.000000,   0.000000 Bohr

Properties computed using the SCF density matrix

  Nuclear Dipole Moment: (a.u.)
     X:     0.0000      Y:     0.0000      Z:     0.0000

  Electronic Dipole Moment: (a.u.)
     X:     0.0000      Y:     0.0000      Z:     0.0000

  Dipole Moment: (a.u.)
     X:     0.0000      Y:     0.0000      Z:     0.0000     Total:     0.0000

  Dipole Moment: (Debye)
     X:     0.0000      Y:     0.0000      Z:     0.0000     Total:     0.0000


*** tstop() called on c-16-18.local at Sat Oct 13 12:55:38 2018
Module time:
	user time   =       2.29 seconds =       0.04 minutes
	system time =       0.03 seconds =       0.00 minutes
	total time  =          3 seconds =       0.05 minutes
Total time:
	user time   =      26.02 seconds =       0.43 minutes
	system time =       0.82 seconds =       0.01 minutes
	total time  =         35 seconds =       0.58 minutes

  //>>>>>>>>>>>>>>>>>>>>>>>>>>>>>>>>>>>//
  //               DFMP2               //
  //<<<<<<<<<<<<<<<<<<<<<<<<<<<<<<<<<<<//

   => Loading Basis Set <=

    Name: (DEF2-TZVP AUX)
    Role: RIFIT
    Keyword: DF_BASIS_MP2
    atoms 1-2 entry C          line   178 file /beegfs/DATA/mobley/limvt/local/miniconda3/envs/oepython3/share/psi4/basis/def2-tzvp-ri.gbs 
    atoms 3-8 entry H          line    21 file /beegfs/DATA/mobley/limvt/local/miniconda3/envs/oepython3/share/psi4/basis/def2-tzvp-ri.gbs 

	 --------------------------------------------------------
	                          DF-MP2                         
	      2nd-Order Density-Fitted Moller-Plesset Theory     
	              RMP2 Wavefunction,   1 Threads             
	                                                         
	        Rob Parrish, Justin Turney, Andy Simmonett,      
	           Ed Hohenstein, and C. David Sherrill          
	 --------------------------------------------------------

   => Auxiliary Basis Set <=

  Basis Set: (DEF2-TZVP AUX)
    Blend: DEF2-TZVP-RI
    Number of shells: 86
    Number of basis function: 242
    Number of Cartesian functions: 286
    Spherical Harmonics?: true
    Max angular momentum: 4

	 --------------------------------------------------------
	                 NBF =    98, NAUX =   242
	 --------------------------------------------------------
	   CLASS    FOCC     OCC    AOCC    AVIR     VIR    FVIR
	   PAIRS       2       9       7      89      89       0
	 --------------------------------------------------------


         ------------------------------------------------------------
                                     CPHF                           
                                  Rob Parrish                       
         ------------------------------------------------------------

  ==> Geometry <==

    Molecular point group: ci
    Full point group: Ci

    Geometry (in Angstrom), charge = 0, multiplicity = 1:

       Center              X                  Y                   Z               Mass       
    ------------   -----------------  -----------------  -----------------  -----------------
           C         -0.675900000000    -0.245127570642     0.254476411449    12.000000000000
           C          0.675900000000     0.245127570642    -0.254476411449    12.000000000000
           H         -1.498960486902     0.283939505724    -0.228895087126     1.007825032070
           H         -0.809994760434    -1.311545989667     0.058578922858     1.007825032070
           H         -0.773804618064    -0.094167535108     1.331208564865     1.007825032070
           H          1.498960486902    -0.283939505724     0.228895087126     1.007825032070
           H          0.809994760434     1.311545989667    -0.058578922858     1.007825032070
           H          0.773804618064     0.094167535108    -1.331208564865     1.007825032070

  Nuclear repulsion =   42.266174522608729
  Reference energy  =  -79.259823833080915

  ==> Basis Set <==

  Basis Set: DEF2-TZVP
    Blend: DEF2-TZVP
    Number of shells: 46
    Number of basis function: 98
    Number of Cartesian functions: 108
    Spherical Harmonics?: true
    Max angular momentum: 3

  ==> CGRSolver (by Rob Parrish) <==

   Number of roots    =         1
   Preconditioning    =    JACOBI
   Convergence cutoff =     1E-06
   Maximum iterations =       100

  ==> CPHFRHamiltonian (by Rob Parrish) <== 

  ==> DFJK: Density-Fitted J/K Matrices <==

    J tasked:                  Yes
    K tasked:                  Yes
    wK tasked:                  No
    OpenMP threads:              1
    Integrals threads:           1
    Memory (MB):             10728
    Algorithm:                Core
    Integral Cache:           NONE
    Schwarz Cutoff:          1E-12
    Fitting Condition:       1E-12

   => Auxiliary Basis Set <=

  Basis Set: (DEF2-TZVP AUX)
    Blend: DEF2-TZVP-JKFIT
    Number of shells: 86
    Number of basis function: 258
    Number of Cartesian functions: 298
    Spherical Harmonics?: true
    Max angular momentum: 4

  ==> CPHF Iterations <==

  => Iterations <=

             Iter  Converged  Remaining    Residual
  CGR           1          0          1   9.103E-02
  CGR           2          0          1   1.315E-02
  CGR           3          0          1   1.738E-03
  CGR           4          0          1   3.007E-04
  CGR           5          0          1   2.218E-05
  CGR           6          0          1   3.164E-06
  CGR           7          1          0   5.864E-07

    CGRSolver converged.

  ==> DFCorrGrad: Density-Fitted Correlated Gradients <==

    OpenMP threads:              1
    Integrals threads:           1
    Memory (MB):             10728
    Schwarz Cutoff:          0E+00
    Fitting Condition:       1E-12

   => Auxiliary Basis Set <=

  Basis Set: (DEF2-TZVP AUX)
    Blend: DEF2-TZVP-JKFIT
    Number of shells: 86
    Number of basis function: 258
    Number of Cartesian functions: 298
    Spherical Harmonics?: true
    Max angular momentum: 4

	-----------------------------------------------------------
	 ==================> DF-MP2 Energies <==================== 
	-----------------------------------------------------------
	 Reference Energy          =     -79.2598238330809153 [Eh]
	 Singles Energy            =      -0.0000000000000000 [Eh]
	 Same-Spin Energy          =      -0.0728107448084476 [Eh]
	 Opposite-Spin Energy      =      -0.2799039170582736 [Eh]
	 Correlation Energy        =      -0.3527146618667212 [Eh]
	 Total Energy              =     -79.6125384949476427 [Eh]
	-----------------------------------------------------------
	 ================> DF-SCS-MP2 Energies <================== 
	-----------------------------------------------------------
	 SCS Same-Spin Scale       =       0.3333333333333333 [-]
	 SCS Opposite-Spin Scale   =       1.2000000000000000 [-]
	 SCS Same-Spin Energy      =      -0.0242702482694825 [Eh]
	 SCS Opposite-Spin Energy  =      -0.3358847004699282 [Eh]
	 SCS Correlation Energy    =      -0.3601549487394108 [Eh]
	 SCS Total Energy          =     -79.6199787818203220 [Eh]
	-----------------------------------------------------------


  -Total Gradient:
     Atom            X                  Y                   Z
    ------   -----------------  -----------------  -----------------
       1       -0.000139559730     0.000980013364    -0.000006909087
       2        0.000139562554    -0.000980012253     0.000006908054
       3       -0.000526412872     0.000049888055    -0.000095197901
       4       -0.000243677125    -0.001137251192    -0.000141001019
       5       -0.000237916627    -0.000055235808     0.000655966806
       6        0.000526411116    -0.000049887283     0.000095197192
       7        0.000243676559     0.001137249193     0.000141000802
       8        0.000237916125     0.000055235923    -0.000655964847


*** tstop() called on c-16-18.local at Sat Oct 13 12:55:44 2018
Module time:
	user time   =       8.05 seconds =       0.13 minutes
	system time =       0.23 seconds =       0.00 minutes
	total time  =          9 seconds =       0.15 minutes
Total time:
	user time   =      31.78 seconds =       0.53 minutes
	system time =       1.02 seconds =       0.02 minutes
	total time  =         41 seconds =       0.68 minutes

  //>>>>>>>>>>>>>>>>>>>>>>>>>>>>>>>>>>>//
  //    Loading displacement 5 of 28   //
  //<<<<<<<<<<<<<<<<<<<<<<<<<<<<<<<<<<<//
gradient() will perform analytic gradient computation.

*** tstart() called on c-16-18.local
*** at Sat Oct 13 12:55:44 2018

    SCF Algorithm Type (re)set to DF.

*** tstart() called on c-16-18.local
*** at Sat Oct 13 12:55:44 2018

   => Loading Basis Set <=

    Name: DEF2-TZVP
    Role: ORBITAL
    Keyword: BASIS
    atoms 1-2 entry C          line   122 file /beegfs/DATA/mobley/limvt/local/miniconda3/envs/oepython3/share/psi4/basis/def2-tzvp.gbs 
    atoms 3-8 entry H          line    14 file /beegfs/DATA/mobley/limvt/local/miniconda3/envs/oepython3/share/psi4/basis/def2-tzvp.gbs 


         ---------------------------------------------------------
                                   SCF
            by Justin Turney, Rob Parrish, and Andy Simmonett
                              RHF Reference
                        1 Threads,  14305 MiB Core
         ---------------------------------------------------------

  ==> Geometry <==

    Molecular point group: ci
    Full point group: Ci

    Geometry (in Angstrom), charge = 0, multiplicity = 1:

       Center              X                  Y                   Z               Mass       
    ------------   -----------------  -----------------  -----------------  -----------------
           C         -0.675900000000    -0.245500000000     0.254127469601    12.000000000000
           C          0.675900000000     0.245500000000    -0.254127469601    12.000000000000
           H         -1.498922867043     0.284655350024    -0.228251348137     1.007825032070
           H         -0.810668436698    -1.311088549687     0.059490491059     1.007825032070
           H         -0.773185780340    -0.093240559444     1.331633437716     1.007825032070
           H          1.498922867043    -0.284655350024     0.228251348137     1.007825032070
           H          0.810668436698     1.311088549687    -0.059490491059     1.007825032070
           H          0.773185780340     0.093240559444    -1.331633437716     1.007825032070

  Running in ci symmetry.

  Rotational constants: A =      2.69539  B =      0.66832  C =      0.66832 [cm^-1]
  Rotational constants: A =  80805.64987  B =  20035.82819  C =  20035.66159 [MHz]
  Nuclear repulsion =   42.266125857211904

  Charge       = 0
  Multiplicity = 1
  Electrons    = 18
  Nalpha       = 9
  Nbeta        = 9

  ==> Algorithm <==

  SCF Algorithm Type is DF.
  DIIS enabled.
  MOM disabled.
  Fractional occupation disabled.
  Guess Type is SAD.
  Energy threshold   = 1.00e-10
  Density threshold  = 1.00e-10
  Integral threshold = 0.00e+00

  ==> Primary Basis <==

  Basis Set: DEF2-TZVP
    Blend: DEF2-TZVP
    Number of shells: 46
    Number of basis function: 98
    Number of Cartesian functions: 108
    Spherical Harmonics?: true
    Max angular momentum: 3

   => Loading Basis Set <=

    Name: (DEF2-TZVP AUX)
    Role: JKFIT
    Keyword: DF_BASIS_SCF
    atoms 1-2 entry C          line   202 file /beegfs/DATA/mobley/limvt/local/miniconda3/envs/oepython3/share/psi4/basis/def2-tzvp-jkfit.gbs 
    atoms 3-8 entry H          line    22 file /beegfs/DATA/mobley/limvt/local/miniconda3/envs/oepython3/share/psi4/basis/def2-tzvp-jkfit.gbs 

  ==> Pre-Iterations <==

   -------------------------------------------------------
    Irrep   Nso     Nmo     Nalpha   Nbeta   Ndocc  Nsocc
   -------------------------------------------------------
     Ag        49      49       0       0       0       0
     Au        49      49       0       0       0       0
   -------------------------------------------------------
    Total      98      98       9       9       9       0
   -------------------------------------------------------

  ==> Integral Setup <==

  ==> DFJK: Density-Fitted J/K Matrices <==

    J tasked:                  Yes
    K tasked:                  Yes
    wK tasked:                  No
    OpenMP threads:              1
    Integrals threads:           1
    Memory (MB):             10728
    Algorithm:                Core
    Integral Cache:           NONE
    Schwarz Cutoff:          1E-12
    Fitting Condition:       1E-12

   => Auxiliary Basis Set <=

  Basis Set: (DEF2-TZVP AUX)
    Blend: DEF2-TZVP-JKFIT
    Number of shells: 86
    Number of basis function: 258
    Number of Cartesian functions: 298
    Spherical Harmonics?: true
    Max angular momentum: 4

  Minimum eigenvalue in the overlap matrix is 5.6607995158E-04.
  Using Symmetric Orthogonalization.

  SCF Guess: Superposition of Atomic Densities via on-the-fly atomic UHF.

  ==> Iterations <==

                           Total Energy        Delta E     RMS |[F,P]|

   @DF-RHF iter   0:   -79.88847634681019   -7.98885e+01   3.94502e-02 
   @DF-RHF iter   1:   -79.20982509529625    6.78651e-01   3.49884e-03 
   @DF-RHF iter   2:   -79.25542412883755   -4.55990e-02   8.94423e-04 DIIS
   @DF-RHF iter   3:   -79.25953340596881   -4.10928e-03   2.03696e-04 DIIS
   @DF-RHF iter   4:   -79.25981171117384   -2.78305e-04   4.14958e-05 DIIS
   @DF-RHF iter   5:   -79.25982323108693   -1.15199e-05   1.21234e-05 DIIS
   @DF-RHF iter   6:   -79.25982383373966   -6.02653e-07   2.41875e-06 DIIS
   @DF-RHF iter   7:   -79.25982386900861   -3.52690e-08   3.10703e-07 DIIS
   @DF-RHF iter   8:   -79.25982386965751   -6.48896e-10   4.82462e-08 DIIS
   @DF-RHF iter   9:   -79.25982386967289   -1.53761e-11   8.05075e-09 DIIS
   @DF-RHF iter  10:   -79.25982386967334   -4.54747e-13   1.13949e-09 DIIS
   @DF-RHF iter  11:   -79.25982386967318    1.56319e-13   1.55150e-10 DIIS
   @DF-RHF iter  12:   -79.25982386967326   -7.10543e-14   2.43464e-11 DIIS

  ==> Post-Iterations <==

    Orbital Energies (a.u.)
    -----------------------

    Doubly Occupied:                                                      

       1Ag   -11.210852     1Au   -11.210244     2Ag    -1.017466  
       2Au    -0.841156     3Au    -0.596510     4Au    -0.596113  
       3Ag    -0.510772     4Ag    -0.486557     5Ag    -0.486016  

    Virtual:                                                              

       6Ag     0.141516     5Au     0.180317     6Au     0.220407  
       7Au     0.220435     7Ag     0.234245     8Ag     0.234368  
       9Ag     0.314072     8Au     0.316321    10Ag     0.354161  
      11Ag     0.354260     9Au     0.372040    10Au     0.372066  
      12Ag     0.527531    11Au     0.551875    12Au     0.614920  
      13Au     0.615142    14Au     0.626619    13Ag     0.696650  
      14Ag     0.697330    15Ag     0.754109    15Au     0.762339  
      16Au     0.841874    17Au     0.842221    16Ag     1.030221  
      17Ag     1.030835    18Ag     1.124852    18Au     1.246510  
      19Au     1.246736    19Ag     1.248314    20Ag     1.248327  
      20Au     1.340116    21Ag     1.731462    22Ag     1.766438  
      23Ag     1.766490    21Au     1.773779    22Au     1.815496  
      24Ag     1.824213    23Au     1.868255    24Au     1.868661  
      25Au     2.019439    25Ag     2.051633    26Au     2.074722  
      27Au     2.074757    26Ag     2.217193    27Ag     2.217922  
      28Ag     2.270396    28Au     2.430738    29Ag     2.587051  
      30Ag     2.639014    31Ag     2.639194    29Au     2.653764  
      30Au     2.654841    31Au     2.703646    32Au     2.704797  
      32Ag     2.838957    33Ag     2.839882    33Au     2.877022  
      34Au     2.877419    34Ag     2.934637    35Ag     2.934857  
      36Ag     3.024168    35Au     3.174892    36Au     3.280145  
      37Au     3.334947    38Au     3.335193    37Ag     3.439644  
      38Ag     3.440445    39Ag     3.493387    39Au     3.508479  
      40Au     3.587120    40Ag     3.687504    41Ag     3.688438  
      42Ag     3.812466    41Au     3.837845    42Au     3.838711  
      43Au     4.099888    44Au     4.100237    43Ag     4.255014  
      44Ag     4.255303    45Ag     4.275737    45Au     4.574011  
      46Au     4.714616    47Au     4.715604    46Ag     4.806029  
      47Ag     4.806502    48Ag     4.939515    48Au     5.109759  
      49Ag    23.373603    49Au    23.426771  

    Final Occupation by Irrep:
             Ag    Au 
    DOCC [     5,    4 ]

  Energy converged.

  @DF-RHF Final Energy:   -79.25982386967326

   => Energetics <=

    Nuclear Repulsion Energy =             42.2661258572119038
    One-Electron Energy =                -189.1405249131192079
    Two-Electron Energy =                  67.6145751862340489
    DFT Exchange-Correlation Energy =       0.0000000000000000
    Empirical Dispersion Energy =           0.0000000000000000
    PCM Polarization Energy =               0.0000000000000000
    EFP Energy =                            0.0000000000000000
    Total Energy =                        -79.2598238696732551



Properties will be evaluated at   0.000000,   0.000000,   0.000000 Bohr

Properties computed using the SCF density matrix

[...]
  H 	  -0.182  -0.060   0.070       1.007825
  H 	  -0.182  -0.067   0.062       1.007825

   Frequency:       1232.87
   Force constant:   0.0575
	     X       Y       Z           mass	
  C 	  -0.053   0.046  -0.097      12.000000
  C 	   0.053  -0.046   0.097      12.000000
  H 	  -0.319  -0.102   0.208       1.007825
  H 	   0.158  -0.030   0.163       1.007825
  H 	   0.339  -0.021  -0.047       1.007825
  H 	   0.319   0.102  -0.208       1.007825
  H 	  -0.158   0.030  -0.163       1.007825
  H 	  -0.339   0.021   0.047       1.007825

   Frequency:       1232.90
   Force constant:   0.0575
	     X       Y       Z           mass	
  C 	  -0.016   0.104   0.058      12.000000
  C 	   0.016  -0.104  -0.058      12.000000
  H 	  -0.117  -0.197  -0.096       1.007825
  H 	   0.348   0.095  -0.185       1.007825
  H 	  -0.178  -0.245   0.088       1.007825
  H 	   0.117   0.197   0.096       1.007825
  H 	  -0.348  -0.095   0.185       1.007825
  H 	   0.178   0.245  -0.088       1.007825

   Frequency:       1421.35
   Force constant:   0.0765
	     X       Y       Z           mass	
  C 	  -0.075  -0.027   0.028      12.000000
  C 	  -0.075  -0.027   0.028      12.000000
  H 	   0.229   0.206  -0.204       1.007825
  H 	   0.331  -0.031  -0.161       1.007825
  H 	   0.337   0.150   0.027       1.007825
  H 	   0.229   0.206  -0.204       1.007825
  H 	   0.331  -0.031  -0.161       1.007825
  H 	   0.337   0.150   0.027       1.007825

   Frequency:       1437.74
   Force constant:   0.0782
	     X       Y       Z           mass	
  C 	   0.085   0.031  -0.032      12.000000
  C 	  -0.085  -0.031   0.032      12.000000
  H 	  -0.216  -0.204   0.202       1.007825
  H 	  -0.320   0.038   0.158       1.007825
  H 	  -0.326  -0.147  -0.035       1.007825
  H 	   0.216   0.204  -0.202       1.007825
  H 	   0.320  -0.038  -0.158       1.007825
  H 	   0.326   0.147   0.035       1.007825

   Frequency:       1527.53
   Force constant:   0.0883
	     X       Y       Z           mass	
  C 	   0.021  -0.019   0.038      12.000000
  C 	   0.021  -0.019   0.038      12.000000
  H 	  -0.137  -0.248   0.025       1.007825
  H 	  -0.156   0.097  -0.456       1.007825
  H 	   0.038   0.379  -0.027       1.007825
  H 	  -0.137  -0.248   0.025       1.007825
  H 	  -0.156   0.097  -0.456       1.007825
  H 	   0.038   0.379  -0.027       1.007825

   Frequency:       1527.57
   Force constant:   0.0883
	     X       Y       Z           mass	
  C 	   0.006  -0.041  -0.024      12.000000
  C 	   0.006  -0.041  -0.024      12.000000
  H 	  -0.034   0.282   0.388       1.007825
  H 	   0.258  -0.060  -0.019       1.007825
  H 	  -0.295   0.269  -0.085       1.007825
  H 	  -0.034   0.282   0.388       1.007825
  H 	   0.258  -0.060  -0.019       1.007825
  H 	  -0.295   0.269  -0.085       1.007825

   Frequency:       1527.79
   Force constant:   0.0883
	     X       Y       Z           mass	
  C 	   0.009  -0.006   0.017      12.000000
  C 	  -0.009   0.006  -0.017      12.000000
  H 	  -0.188  -0.297   0.000       1.007825
  H 	  -0.176   0.101  -0.432       1.007825
  H 	   0.133   0.347  -0.035       1.007825
  H 	   0.188   0.297  -0.000       1.007825
  H 	   0.176  -0.101   0.432       1.007825
  H 	  -0.133  -0.347   0.035       1.007825

   Frequency:       1527.82
   Force constant:   0.0883
	     X       Y       Z           mass	
  C 	   0.004  -0.018  -0.008      12.000000
  C 	  -0.004   0.018   0.008      12.000000
  H 	  -0.080   0.223   0.384       1.007825
  H 	   0.297  -0.021  -0.104       1.007825
  H 	  -0.316   0.288  -0.071       1.007825
  H 	   0.080  -0.223  -0.384       1.007825
  H 	  -0.297   0.021   0.104       1.007825
  H 	   0.316  -0.288   0.071       1.007825

   Frequency:       3064.24
   Force constant:   0.3553
	     X       Y       Z           mass	
  C 	  -0.032  -0.012   0.012      12.000000
  C 	   0.032   0.012  -0.012      12.000000
  H 	   0.296  -0.200   0.183       1.007825
  H 	   0.041   0.390   0.076       1.007825
  H 	   0.027  -0.059  -0.395       1.007825
  H 	  -0.296   0.200  -0.183       1.007825
  H 	  -0.041  -0.390  -0.076       1.007825
  H 	  -0.027   0.059   0.395       1.007825

   Frequency:       3066.49
   Force constant:   0.3559
	     X       Y       Z           mass	
  C 	  -0.030  -0.011   0.011      12.000000
  C 	  -0.030  -0.011   0.011      12.000000
  H 	   0.295  -0.201   0.184       1.007825
  H 	   0.039   0.391   0.077       1.007825
  H 	   0.025  -0.060  -0.395       1.007825
  H 	   0.295  -0.201   0.184       1.007825
  H 	   0.039   0.391   0.077       1.007825
  H 	   0.025  -0.060  -0.395       1.007825

   Frequency:       3138.84
   Force constant:   0.3728
	     X       Y       Z           mass	
  C 	   0.029  -0.035   0.042      12.000000
  C 	  -0.029   0.035  -0.042      12.000000
  H 	  -0.407   0.267  -0.242       1.007825
  H 	   0.032   0.213   0.053       1.007825
  H 	   0.032  -0.057  -0.318       1.007825
  H 	   0.407  -0.267   0.242       1.007825
  H 	  -0.032  -0.213  -0.053       1.007825
  H 	  -0.032   0.057   0.318       1.007825

   Frequency:       3139.05
   Force constant:   0.3729
	     X       Y       Z           mass	
  C 	   0.002  -0.047  -0.041      12.000000
  C 	  -0.002   0.047   0.041      12.000000
  H 	  -0.045   0.019  -0.038       1.007825
  H 	   0.056   0.491   0.086       1.007825
  H 	  -0.033   0.054   0.437       1.007825
  H 	   0.045  -0.019   0.038       1.007825
  H 	  -0.056  -0.491  -0.086       1.007825
  H 	   0.033  -0.054  -0.437       1.007825

   Frequency:       3160.76
   Force constant:   0.3781
	     X       Y       Z           mass	
  C 	   0.029  -0.034   0.044      12.000000
  C 	   0.029  -0.034   0.044      12.000000
  H 	  -0.407   0.265  -0.239       1.007825
  H 	   0.030   0.199   0.049       1.007825
  H 	   0.034  -0.057  -0.330       1.007825
  H 	  -0.407   0.265  -0.239       1.007825
  H 	   0.030   0.199   0.049       1.007825
  H 	   0.034  -0.057  -0.330       1.007825

   Frequency:       3160.98
   Force constant:   0.3781
	     X       Y       Z           mass	
  C 	  -0.003   0.048   0.040      12.000000
  C 	  -0.003   0.048   0.040      12.000000
  H 	   0.056  -0.027   0.043       1.007825
  H 	  -0.059  -0.496  -0.087       1.007825
  H 	   0.035  -0.053  -0.427       1.007825
  H 	   0.056  -0.027   0.043       1.007825
  H 	  -0.059  -0.496  -0.087       1.007825
  H 	   0.035  -0.053  -0.427       1.007825

-------------------------------------------------------------
  ## Hessian (Symmetry 0) ##
  Irrep: 1 Size: 24 x 24

                 1                   2                   3                   4                   5

    1     0.50774098083424    -0.02700433207262     0.02798996270730    -0.18219182803331    -0.03671492016619
    2    -0.02700433207262     0.57237850895659     0.01020597465473    -0.03671492016619    -0.09445879953572
    3     0.02798996270730     0.01020597465473     0.57161516806856     0.03805877094534     0.01382625053493
    4    -0.18219182803331    -0.03671492016619     0.03805877094534     0.50774098083424    -0.02700433207262
    5    -0.03671492016619    -0.09445879953572     0.01382625053493    -0.02700433207262     0.57237850895659
    6     0.03805877094534     0.01382625053493    -0.09545162632711     0.02798996270730     0.01020597465473
    7    -0.19649874388664     0.09962875360595    -0.09107148783410    -0.02239411867170     0.01495019463805
    8     0.10026080628152    -0.11518899142707     0.06015829427959    -0.01058036267214     0.00612228327216
    9    -0.09167576008910     0.06017578090633    -0.10420898743560     0.01075536358024    -0.00683960521592
   10    -0.05061920647042    -0.02751504854512    -0.00604568174978    -0.00407931194769    -0.03159192322557
   11    -0.02828886574964    -0.30690685665969    -0.04931298012995    -0.00028778575092    -0.00834589638775
   12    -0.00623318250378    -0.04967267863442    -0.05842381387204     0.00155931745412     0.01279494795170
   13    -0.04894591124994     0.00351738382039     0.01872068710460    -0.00301186057453     0.00472989194511
   14     0.00366019612233    -0.05480299481322    -0.03936182253052    -0.00104473599234     0.00120274659469
   15     0.01951094096907    -0.03901959240646    -0.31218907499252     0.00003458693681    -0.00147107779090
   16    -0.02239411867170     0.01495019463805    -0.01367376519791    -0.19649874388664     0.09962875360595
   17    -0.01058036267214     0.00612228327216    -0.00610087504647     0.10026080628152    -0.11518899142707
   18     0.01075536358024    -0.00683960521592     0.00565982496108    -0.09167576008910     0.06017578090633
   19    -0.00407931194769    -0.03159192322557    -0.00602876574511    -0.05061920647042    -0.02751504854512
   20    -0.00028778575092    -0.00834589638775    -0.00175126667290    -0.02828886574964    -0.30690685665969
   21     0.00155931745412     0.01279494795170     0.00180519189767    -0.00623318250378    -0.04967267863442
   22    -0.00301186057453     0.00472989194511     0.03205027976966    -0.04894591124994     0.00351738382039
   23    -0.00104473599234     0.00120274659469     0.01233642491059     0.00366019612233    -0.05480299481322
   24     0.00003458693681    -0.00147107779090    -0.00880668230005     0.01951094096907    -0.03901959240646

                 6                   7                   8                   9                  10

    1     0.03805877094534    -0.19649874388664     0.10026080628152    -0.09167576008910    -0.05061920647042
    2     0.01382625053493     0.09962875360595    -0.11518899142707     0.06017578090633    -0.02751504854512
    3    -0.09545162632711    -0.09107148783410     0.06015829427959    -0.10420898743560    -0.00604568174978
    4     0.02798996270730    -0.02239411867170    -0.01058036267214     0.01075536358024    -0.00407931194769
    5     0.01020597465473     0.01495019463805     0.00612228327216    -0.00683960521592    -0.03159192322557
    6     0.57161516806856    -0.01367376519791    -0.00610087504647     0.00565982496108    -0.00602876574511
    7    -0.01367376519791     0.21642619241691    -0.10729326413794     0.09778723910710     0.00284149433581
    8    -0.00610087504647    -0.10729326413794     0.12092133047896    -0.06678026211501     0.02444488953424
    9     0.00565982496108     0.09778723910710    -0.06678026211501     0.10895586133188     0.00613634677492
   10    -0.00602876574511     0.00284149433581     0.02444488953424     0.00613634677492     0.05602675444257
   11    -0.00175126667290    -0.00280255106335    -0.01472143545542    -0.00402362084946     0.03332611721730
   12     0.00180519189767     0.00244412547319     0.01593848188502     0.00230808988721     0.00429433010754
   13     0.03205027976966     0.00195079081964    -0.00516693765770    -0.02468973884550    -0.00113340981761
   14     0.01233642491059    -0.00206361701325     0.00196616629889     0.01744934306517     0.00232885637380
   15    -0.00880668230005     0.00210687291456    -0.00321307462286    -0.01349426709885     0.00008331135783
   16    -0.09107148783410    -0.00474411793322    -0.00288694949503     0.00292935417010     0.00118998385250
   17     0.06015829427959    -0.00288694949503     0.00017737100560     0.00086872390829     0.00033311701498
   18    -0.10420898743560     0.00292935417010     0.00086872390829     0.00008185921123    -0.00091133436045
   19    -0.00604568174978     0.00118998385250     0.00033311701498    -0.00091133436045    -0.00571876347000
   20    -0.04931298012995    -0.00010080026148     0.00057700059584    -0.00016973243303    -0.00198460196760
   21    -0.05842381387204    -0.00062376798886    -0.00065433328929     0.00015195045523     0.00263800772754
   22     0.01872068710460     0.00122851906672     0.00088870113207    -0.00033147033732     0.00149245907484
   23    -0.03936182253052     0.00056823372705     0.00014627523103    -0.00068062726637     0.00065859359798
   24    -0.31218907499252     0.00010142935592    -0.00021695499927     0.00054566868780    -0.00016621411249

                11                  12                  13                  14                  15

    1    -0.02828886574964    -0.00623318250378    -0.04894591124994     0.00366019612233     0.01951094096907
    2    -0.30690685665969    -0.04967267863442     0.00351738382039    -0.05480299481322    -0.03901959240646
    3    -0.04931298012995    -0.05842381387204     0.01872068710460    -0.03936182253052    -0.31218907499252
    4    -0.00028778575092     0.00155931745412    -0.00301186057453    -0.00104473599234     0.00003458693681
    5    -0.00834589638775     0.01279494795170     0.00472989194511     0.00120274659469    -0.00147107779090
    6    -0.00175126667290     0.00180519189767     0.03205027976966     0.01233642491059    -0.00880668230005
    7    -0.00280255106335     0.00244412547319     0.00195079081964    -0.00206361701325     0.00210687291456
    8    -0.01472143545542     0.01593848188502    -0.00516693765770     0.00196616629889    -0.00321307462286
    9    -0.00402362084946     0.00230808988721    -0.02468973884550     0.01744934306517    -0.01349426709885
   10     0.03332611721730     0.00429433010754    -0.00113340981761     0.00232885637380     0.00008331135783
   11     0.33153566241456     0.05328043461177    -0.00003034854003    -0.00354508164488     0.00064044815755
   12     0.05328043461177     0.05880127100004    -0.00340180164446    -0.03307792918558    -0.00489094650018
   13    -0.00003034854003    -0.00340180164446     0.05416960120205    -0.00157922659075    -0.02377550044128
   14    -0.00354508164488    -0.03307792918558    -0.00157922659075     0.05477470768234     0.04197963274631
   15     0.00064044815755    -0.00489094650018    -0.02377550044128     0.04197963274631     0.33740615399296
   16    -0.00010080026148    -0.00062376798886     0.00122851906672     0.00056823372705     0.00010142935592
   17     0.00057700059584    -0.00065433328929     0.00088870113207     0.00014627523103    -0.00021695499927
   18    -0.00016973243303     0.00015195045523    -0.00033147033732    -0.00068062726637     0.00054566868780
   19    -0.00198460196760     0.00263800772754     0.00149245907484     0.00065859359798    -0.00016621411249
   20     0.00122329070330     0.00097764408027     0.00016883611573     0.00018331643403     0.00035907323574
   21     0.00097764408027     0.00000631957532    -0.00067702862528     0.00041343258053     0.00024193755674
   22     0.00016883611573    -0.00067702862528    -0.00575018852116    -0.00252830022482     0.00210457301957
   23     0.00018331643403     0.00041343258053    -0.00252830022482     0.00007486421711     0.00094154567988
   24     0.00035907323574     0.00024193755674     0.00210457301957     0.00094154567988     0.00118721065409

                16                  17                  18                  19                  20

    1    -0.02239411867170    -0.01058036267214     0.01075536358024    -0.00407931194769    -0.00028778575092
    2     0.01495019463805     0.00612228327216    -0.00683960521592    -0.03159192322557    -0.00834589638775
    3    -0.01367376519791    -0.00610087504647     0.00565982496108    -0.00602876574511    -0.00175126667290
    4    -0.19649874388664     0.10026080628152    -0.09167576008910    -0.05061920647042    -0.02828886574964
    5     0.09962875360595    -0.11518899142707     0.06017578090633    -0.02751504854512    -0.30690685665969
    6    -0.09107148783410     0.06015829427959    -0.10420898743560    -0.00604568174978    -0.04931298012995
    7    -0.00474411793322    -0.00288694949503     0.00292935417010     0.00118998385250    -0.00010080026148
    8    -0.00288694949503     0.00017737100560     0.00086872390829     0.00033311701498     0.00057700059584
    9     0.00292935417010     0.00086872390829     0.00008185921123    -0.00091133436045    -0.00016973243303
   10     0.00118998385250     0.00033311701498    -0.00091133436045    -0.00571876347000    -0.00198460196760
   11    -0.00010080026148     0.00057700059584    -0.00016973243303    -0.00198460196760     0.00122329070330
   12    -0.00062376798886    -0.00065433328929     0.00015195045523     0.00263800772754     0.00097764408027
   13     0.00122851906672     0.00088870113207    -0.00033147033732     0.00149245907484     0.00016883611573
   14     0.00056823372705     0.00014627523103    -0.00068062726637     0.00065859359798     0.00018331643403
   15     0.00010142935592    -0.00021695499927     0.00054566868780    -0.00016621411249     0.00035907323574
   16     0.21642619241691    -0.10729326413794     0.09778723910710     0.00284149433581    -0.00280255106335
   17    -0.10729326413794     0.12092133047896    -0.06678026211501     0.02444488953424    -0.01472143545542
   18     0.09778723910710    -0.06678026211501     0.10895586133188     0.00613634677492    -0.00402362084946
   19     0.00284149433581     0.02444488953424     0.00613634677492     0.05602675444257     0.03332611721730
   20    -0.00280255106335    -0.01472143545542    -0.00402362084946     0.03332611721730     0.33153566241456
   21     0.00244412547319     0.01593848188502     0.00230808988721     0.00429433010754     0.05328043461177
   22     0.00195079081964    -0.00516693765770    -0.02468973884550    -0.00113340981761    -0.00003034854003
   23    -0.00206361701325     0.00196616629889     0.01744934306517     0.00232885637380    -0.00354508164488
   24     0.00210687291456    -0.00321307462286    -0.01349426709885     0.00008331135783     0.00064044815755

                21                  22                  23                  24

    1     0.00155931745412    -0.00301186057453    -0.00104473599234     0.00003458693681
    2     0.01279494795170     0.00472989194511     0.00120274659469    -0.00147107779090
    3     0.00180519189767     0.03205027976966     0.01233642491059    -0.00880668230005
    4    -0.00623318250378    -0.04894591124994     0.00366019612233     0.01951094096907
    5    -0.04967267863442     0.00351738382039    -0.05480299481322    -0.03901959240646
    6    -0.05842381387204     0.01872068710460    -0.03936182253052    -0.31218907499252
    7    -0.00062376798886     0.00122851906672     0.00056823372705     0.00010142935592
    8    -0.00065433328929     0.00088870113207     0.00014627523103    -0.00021695499927
    9     0.00015195045523    -0.00033147033732    -0.00068062726637     0.00054566868780
   10     0.00263800772754     0.00149245907484     0.00065859359798    -0.00016621411249
   11     0.00097764408027     0.00016883611573     0.00018331643403     0.00035907323574
   12     0.00000631957532    -0.00067702862528     0.00041343258053     0.00024193755674
   13    -0.00067702862528    -0.00575018852116    -0.00252830022482     0.00210457301957
   14     0.00041343258053    -0.00252830022482     0.00007486421711     0.00094154567988
   15     0.00024193755674     0.00210457301957     0.00094154567988     0.00118721065409
   16     0.00244412547319     0.00195079081964    -0.00206361701325     0.00210687291456
   17     0.01593848188502    -0.00516693765770     0.00196616629889    -0.00321307462286
   18     0.00230808988721    -0.02468973884550     0.01744934306517    -0.01349426709885
   19     0.00429433010754    -0.00113340981761     0.00232885637380     0.00008331135783
   20     0.05328043461177    -0.00003034854003    -0.00354508164488     0.00064044815755
   21     0.05880127100004    -0.00340180164446    -0.03307792918558    -0.00489094650018
   22    -0.00340180164446     0.05416960120205    -0.00157922659075    -0.02377550044128
   23    -0.03307792918558    -0.00157922659075     0.05477470768234     0.04197963274631
   24    -0.00489094650018    -0.02377550044128     0.04197963274631     0.33740615399296




*** Psi4 exiting successfully. Buy a developer a beer!
