    -----------------------------------------------------------------------
          Psi4: An Open-Source Ab Initio Electronic Structure Package
                              Psi4 1.0.24 Driver

                          Git: Rev {master} 45aac03 dirty

    J. M. Turney, A. C. Simmonett, R. M. Parrish, E. G. Hohenstein,
    F. A. Evangelista, J. T. Fermann, B. J. Mintz, L. A. Burns, J. J. Wilke,
    M. L. Abrams, N. J. Russ, M. L. Leininger, C. L. Janssen, E. T. Seidl,
    W. D. Allen, H. F. Schaefer, R. A. King, E. F. Valeev, C. D. Sherrill,
    and T. D. Crawford, WIREs Comput. Mol. Sci. 2, 556-565 (2012)
    (doi: 10.1002/wcms.93)

                         Additional Contributions by
    A. E. DePrince, U. Bozkaya, A. Yu. Sokolov, D. G. A. Smith, R. Di Remigio,
    R. M. Richard, J. F. Gonthier, H. R. McAlexander, M. Saitow, and
    B. P. Pritchard
    -----------------------------------------------------------------------


    Psi4 started on: Mon May  1 19:06:09 2017

    Process ID:   6477
    PSI4DATADIR: /home/limvt/local/miniconda2/share/psi4
    Memory level set to 256.000 MB

  ==> Input File <==

--------------------------------------------------------------------------
memory 5.0 Gb
molecule GBI_3 {
  1 1
  C     2.0356    -0.3180      0.7013
  C     0.6472    -0.4108      0.8287
  C     2.8748    -0.5404      1.8012
  C     0.0498    -0.7490      2.0481
  C     2.2911    -0.8684      3.0332
  C     0.9120    -0.9827      3.1206
  C     1.8985    -1.4396      5.0742
  C     3.0940    -1.7494      7.1307
  N     2.8783    -1.1125      4.2504
  N     0.6891    -1.3597      4.4197
  N     4.1959    -1.1378      6.6894
  N     3.1184    -2.2865      8.3558
  N     1.9655    -1.8267      6.3979
  H     2.4729    -0.0670     -0.2642
  H     0.0162    -0.2218     -0.0398
  H     3.9534    -0.4661      1.7019
  H    -1.0290    -0.8285      2.1475
  H    -0.2087    -1.5424      4.8390
  H     5.0202    -1.0477      7.2634
  H     4.1963    -0.7496      5.7507
  H     3.9560    -2.2411      8.9188
  H     2.3281    -2.8021      8.7164
  H     1.1526    -2.1796      6.8871
  units angstrom
}

set basis def2-SV(P)
set df_basis_mp2 def2-SV(P)-ri
set freeze_core True
optimize('mp2')
--------------------------------------------------------------------------

  Memory set to   5.000 GiB by Python script.
gradient() will perform analytic gradient computation.
    SCF Algorithm Type (re)set to DF.

*** tstart() called on c-19-414.local
*** at Mon May  1 19:06:10 2017


         ---------------------------------------------------------
                                   SCF
            by Justin Turney, Rob Parrish, and Andy Simmonett
                              RHF Reference
                        1 Threads,   5000 MiB Core
         ---------------------------------------------------------

  ==> Geometry <==

    Molecular point group: c1
    Full point group: C1

    Geometry (in Angstrom), charge = 1, multiplicity = 1:

       Center              X                  Y                   Z               Mass       
    ------------   -----------------  -----------------  -----------------  -----------------
           C         -0.051729064993     0.846659360228    -3.573775373998    12.000000000000
           C         -1.440129064993     0.753859360228    -3.446375373998    12.000000000000
           C          0.787470935007     0.624259360228    -2.473875373998    12.000000000000
           C         -2.037529064993     0.415659360228    -2.226975373998    12.000000000000
           C          0.203770935007     0.296259360228    -1.241875373998    12.000000000000
           C         -1.175329064993     0.181959360228    -1.154475373998    12.000000000000
           C         -0.188829064993    -0.274940639772     0.799124626002    12.000000000000
           C          1.006670935007    -0.584740639772     2.855624626002    12.000000000000
           N          0.790970935007     0.052159360228    -0.024675373998    14.003074004780
           N         -1.398229064993    -0.195040639772     0.144624626002    14.003074004780
           N          2.108570935007     0.026859360228     2.414324626002    14.003074004780
           N          1.031070935007    -1.121840639772     4.080724626002    14.003074004780
           N         -0.121829064993    -0.662040639772     2.122824626002    14.003074004780
           H          0.385570935007     1.097659360228    -4.539275373998     1.007825032070
           H         -2.071129064993     0.942859360228    -4.314875373998     1.007825032070
           H          1.866070935007     0.698559360228    -2.573175373998     1.007825032070
           H         -3.116329064993     0.336159360228    -2.127575373998     1.007825032070
           H         -2.296029064993    -0.377740639772     0.563924626002     1.007825032070
           H          2.932870935007     0.116959360228     2.988324626002     1.007825032070
           H          2.108970935007     0.415059360228     1.475624626002     1.007825032070
           H          1.868670935007    -1.076440639772     4.643724626002     1.007825032070
           H          0.240770935007    -1.637440639772     4.441324626002     1.007825032070
           H         -0.934729064993    -1.014940639772     2.612024626002     1.007825032070

  Running in c1 symmetry.

  Rotational constants: A =      0.09177  B =      0.01399  C =      0.01221 [cm^-1]
  Rotational constants: A =   2751.31540  B =    419.47829  C =    365.96841 [MHz]
  Nuclear repulsion =  757.935946446283765

  Charge       = 1
  Multiplicity = 1
  Electrons    = 92
  Nalpha       = 46
  Nbeta        = 46

  ==> Algorithm <==

  SCF Algorithm Type is DF.
  DIIS enabled.
  MOM disabled.
  Fractional occupation disabled.
  Guess Type is SAD.
  Energy threshold   = 1.00e-10
  Density threshold  = 1.00e-10
  Integral threshold = 0.00e+00

  ==> Primary Basis <==

  Basis Set: DEF2-SV(P)
    Number of shells: 98
    Number of basis function: 202
    Number of Cartesian functions: 215
    Spherical Harmonics?: true
    Max angular momentum: 2

  ==> Pre-Iterations <==

   -------------------------------------------------------
    Irrep   Nso     Nmo     Nalpha   Nbeta   Ndocc  Nsocc
   -------------------------------------------------------
     A        202     202       0       0       0       0
   -------------------------------------------------------
    Total     202     202      46      46      46       0
   -------------------------------------------------------

  ==> Integral Setup <==

  ==> DFJK: Density-Fitted J/K Matrices <==

    J tasked:                  Yes
    K tasked:                  Yes
    wK tasked:                  No
    OpenMP threads:              1
    Integrals threads:           1
    Memory (MB):              3576
    Algorithm:                Core
    Integral Cache:           NONE
    Schwarz Cutoff:          1E-12
    Fitting Condition:       1E-12

   => Auxiliary Basis Set <=

  Basis Set: 
    Number of shells: 385
    Number of basis function: 1165
    Number of Cartesian functions: 1377
    Spherical Harmonics?: true
    Max angular momentum: 4

  Minimum eigenvalue in the overlap matrix is 2.4059723808E-04.
  Using Symmetric Orthogonalization.
  SCF Guess: Superposition of Atomic Densities via on-the-fly atomic UHF.

  ==> Iterations <==

                           Total Energy        Delta E     RMS |[F,P]|

   @DF-RHF iter   0:  -585.33479802076806   -5.85335e+02   3.74065e-02 
   @DF-RHF iter   1:  -580.11968738802113    5.21511e+00   2.91574e-03 
   @DF-RHF iter   2:  -580.31854151802588   -1.98854e-01   1.54711e-03 DIIS
   @DF-RHF iter   3:  -580.36217448164905   -4.36330e-02   4.78365e-04 DIIS
   @DF-RHF iter   4:  -580.36940857687466   -7.23410e-03   1.53599e-04 DIIS
   @DF-RHF iter   5:  -580.37021023483305   -8.01658e-04   6.09961e-05 DIIS
   @DF-RHF iter   6:  -580.37043210712898   -2.21872e-04   2.51178e-05 DIIS
   @DF-RHF iter   7:  -580.37047284971106   -4.07426e-05   1.03701e-05 DIIS
   @DF-RHF iter   8:  -580.37048111259344   -8.26288e-06   4.10566e-06 DIIS
   @DF-RHF iter   9:  -580.37048299232777   -1.87973e-06   1.75486e-06 DIIS
   @DF-RHF iter  10:  -580.37048336834675   -3.76019e-07   6.17398e-07 DIIS
   @DF-RHF iter  11:  -580.37048340224771   -3.39010e-08   2.37107e-07 DIIS
   @DF-RHF iter  12:  -580.37048340718991   -4.94219e-09   1.10352e-07 DIIS
   @DF-RHF iter  13:  -580.37048340812350   -9.33596e-10   3.92998e-08 DIIS
   @DF-RHF iter  14:  -580.37048340825947   -1.35969e-10   1.51747e-08 DIIS
   @DF-RHF iter  15:  -580.37048340827585   -1.63709e-11   7.33867e-09 DIIS
   @DF-RHF iter  16:  -580.37048340828039   -4.54747e-12   2.86546e-09 DIIS
   @DF-RHF iter  17:  -580.37048340828130   -9.09495e-13   1.23802e-09 DIIS
   @DF-RHF iter  18:  -580.37048340828130    0.00000e+00   6.48716e-10 DIIS
   @DF-RHF iter  19:  -580.37048340828130    0.00000e+00   2.08744e-10 DIIS
   @DF-RHF iter  20:  -580.37048340828085    4.54747e-13   9.60629e-11 DIIS

  ==> Post-Iterations <==

    Orbital Energies (a.u.)
    -----------------------

    Doubly Occupied:                                                      

       1A    -15.820701     2A    -15.792489     3A    -15.774823  
       4A    -15.754630     5A    -15.692437     6A    -11.611557  
       7A    -11.518300     8A    -11.389861     9A    -11.372569  
      10A    -11.345687    11A    -11.340733    12A    -11.337917  
      13A    -11.330948    14A     -1.551330    15A     -1.486444  
      16A     -1.408117    17A     -1.376571    18A     -1.308406  
      19A     -1.238332    20A     -1.135927    21A     -1.105877  
      22A     -1.068032    23A     -1.013615    24A     -0.995078  
      25A     -0.966902    26A     -0.931215    27A     -0.924218  
      28A     -0.882563    29A     -0.870566    30A     -0.856776  
      31A     -0.833934    32A     -0.825963    33A     -0.797642  
      34A     -0.757594    35A     -0.732816    36A     -0.721251  
      37A     -0.709672    38A     -0.659792    39A     -0.629819  
      40A     -0.624795    41A     -0.616891    42A     -0.582418  
      43A     -0.576966    44A     -0.559680    45A     -0.423876  
      46A     -0.417800  

    Virtual:                                                              

      47A     -0.032362    48A     -0.017271    49A      0.019352  
      50A      0.028623    51A      0.043669    52A      0.055734  
      53A      0.073420    54A      0.088148    55A      0.105298  
      56A      0.112705    57A      0.131676    58A      0.150388  
      59A      0.168065    60A      0.176636    61A      0.193431  
      62A      0.218006    63A      0.253429    64A      0.269221  
      65A      0.294332    66A      0.306589    67A      0.327990  
      68A      0.330444    69A      0.352300    70A      0.355451  
      71A      0.375506    72A      0.378964    73A      0.394334  
      74A      0.443501    75A      0.449924    76A      0.481063  
      77A      0.492962    78A      0.509115    79A      0.525790  
      80A      0.555634    81A      0.567536    82A      0.570057  
      83A      0.581764    84A      0.587725    85A      0.590198  
      86A      0.592938    87A      0.607877    88A      0.616710  
      89A      0.646710    90A      0.657161    91A      0.684798  
      92A      0.694968    93A      0.744098    94A      0.748517  
      95A      0.767669    96A      0.786923    97A      0.806099  
      98A      0.811435    99A      0.826526   100A      0.834260  
     101A      0.834536   102A      0.844358   103A      0.852604  
     104A      0.860534   105A      0.873766   106A      0.879053  
     107A      0.889074   108A      0.904152   109A      0.919511  
     110A      0.930207   111A      0.944995   112A      0.950481  
     113A      0.963333   114A      0.966420   115A      0.980966  
     116A      1.003967   117A      1.015046   118A      1.022985  
     119A      1.054314   120A      1.090621   121A      1.110423  
     122A      1.143826   123A      1.170823   124A      1.207023  
     125A      1.221532   126A      1.265711   127A      1.296806  
     128A      1.325744   129A      1.340199   130A      1.382319  
     131A      1.390138   132A      1.402284   133A      1.410939  
     134A      1.467270   135A      1.485200   136A      1.519060  
     137A      1.529296   138A      1.547655   139A      1.555972  
     140A      1.558620   141A      1.584949   142A      1.623971  
     143A      1.652107   144A      1.666735   145A      1.672381  
     146A      1.674793   147A      1.726299   148A      1.916230  
     149A      1.959894   150A      1.981165   151A      2.049446  
     152A      2.063931   153A      2.101072   154A      2.131102  
     155A      2.158351   156A      2.167185   157A      2.189330  
     158A      2.191097   159A      2.227554   160A      2.230746  
     161A      2.246244   162A      2.259076   163A      2.263137  
     164A      2.298655   165A      2.320475   166A      2.370370  
     167A      2.398381   168A      2.426987   169A      2.464967  
     170A      2.488119   171A      2.504741   172A      2.523031  
     173A      2.611724   174A      2.623019   175A      2.654687  
     176A      2.672197   177A      2.689553   178A      2.706561  
     179A      2.714703   180A      2.729818   181A      2.786709  
     182A      2.802227   183A      2.833431   184A      2.882687  
     185A      2.894249   186A      2.923905   187A      2.927974  
     188A      2.984853   189A      2.986232   190A      3.009801  
     191A      3.038432   192A      3.066863   193A      3.094637  
     194A      3.110712   195A      3.197182   196A      3.306978  
     197A      3.365167   198A      3.397377   199A      3.524802  
     200A      3.585080   201A      3.648173   202A      3.825452  

    Final Occupation by Irrep:
              A 
    DOCC [    46 ]

  Energy converged.

  @DF-RHF Final Energy:  -580.37048340828085

   => Energetics <=

    Nuclear Repulsion Energy =            757.9359464462837650
    One-Electron Energy =               -2277.2657951847586446
    Two-Electron Energy =                 938.9593653301935774
    DFT Exchange-Correlation Energy =       0.0000000000000000
    Empirical Dispersion Energy =           0.0000000000000000
    PCM Polarization Energy =               0.0000000000000000
    EFP Energy =                            0.0000000000000000
    Total Energy =                       -580.3704834082814159


  Saving occupied orbitals to File 180.

*** tstop() called on c-19-414.local at Mon May  1 19:07:03 2017
Module time:
	user time   =      21.46 seconds =       0.36 minutes
	system time =       1.06 seconds =       0.02 minutes
	total time  =         53 seconds =       0.88 minutes
Total time:
	user time   =      21.46 seconds =       0.36 minutes
	system time =       1.06 seconds =       0.02 minutes
	total time  =         53 seconds =       0.88 minutes


Properties will be evaluated at   0.000000,   0.000000,   0.000000 Bohr

Properties computed using the SCF density matrix

  Nuclear Dipole Moment: (a.u.)
     X:     0.9161      Y:    -0.4626      Z:     2.9464

  Electronic Dipole Moment: (a.u.)
     X:    -0.5360      Y:    -0.7152      Z:     1.9859

  Dipole Moment: (a.u.)
     X:     0.3802      Y:    -1.1778      Z:     4.9324     Total:     5.0853

  Dipole Moment: (Debye)
     X:     0.9663      Y:    -2.9936      Z:    12.5368     Total:    12.9254


  //>>>>>>>>>>>>>>>>>>>>>>>>>>>>>>>>>>>//
  //               DFMP2               //
  //<<<<<<<<<<<<<<<<<<<<<<<<<<<<<<<<<<<//


*** tstart() called on c-19-414.local
*** at Mon May  1 19:07:03 2017


*** tstop() called on c-19-414.local at Mon May  1 19:07:03 2017
Module time:
	user time   =       0.40 seconds =       0.01 minutes
	system time =       0.00 seconds =       0.00 minutes
	total time  =          0 seconds =       0.00 minutes
Total time:
	user time   =      21.88 seconds =       0.36 minutes
	system time =       1.06 seconds =       0.02 minutes
	total time  =         53 seconds =       0.88 minutes
	 --------------------------------------------------------
	                          DF-MP2                         
	      2nd-Order Density-Fitted Moller-Plesset Theory     
	              RMP2 Wavefunction,   1 Threads             
	                                                         
	        Rob Parrish, Justin Turney, Andy Simmonett,      
	           Ed Hohenstein, and C. David Sherrill          
	 --------------------------------------------------------

   => Auxiliary Basis Set <=

  Basis Set: DEF2-SV(P)-RI
    Number of shells: 268
    Number of basis function: 764
    Number of Cartesian functions: 865
    Spherical Harmonics?: true
    Max angular momentum: 3

	 --------------------------------------------------------
	                 NBF =   202, NAUX =   764
	 --------------------------------------------------------
	   CLASS    FOCC     OCC    AOCC    AVIR     VIR    FVIR
	   PAIRS      13      46      33     156     156       0
	 --------------------------------------------------------

DGAS Warning! /src/lib/libfock/apps.cc:80 is not currently checking restricted

         ------------------------------------------------------------
                                     CPHF                           
                                  Rob Parrish                       
         ------------------------------------------------------------

  ==> Geometry <==

    Molecular point group: c1
    Full point group: C1

    Geometry (in Angstrom), charge = 1, multiplicity = 1:

       Center              X                  Y                   Z               Mass       
    ------------   -----------------  -----------------  -----------------  -----------------
           C         -0.051729064993     0.846659360228    -3.573775373998    12.000000000000
           C         -1.440129064993     0.753859360228    -3.446375373998    12.000000000000
           C          0.787470935007     0.624259360228    -2.473875373998    12.000000000000
           C         -2.037529064993     0.415659360228    -2.226975373998    12.000000000000
           C          0.203770935007     0.296259360228    -1.241875373998    12.000000000000
           C         -1.175329064993     0.181959360228    -1.154475373998    12.000000000000
           C         -0.188829064993    -0.274940639772     0.799124626002    12.000000000000
           C          1.006670935007    -0.584740639772     2.855624626002    12.000000000000
           N          0.790970935007     0.052159360228    -0.024675373998    14.003074004780
           N         -1.398229064993    -0.195040639772     0.144624626002    14.003074004780
           N          2.108570935007     0.026859360228     2.414324626002    14.003074004780
           N          1.031070935007    -1.121840639772     4.080724626002    14.003074004780
           N         -0.121829064993    -0.662040639772     2.122824626002    14.003074004780
           H          0.385570935007     1.097659360228    -4.539275373998     1.007825032070
           H         -2.071129064993     0.942859360228    -4.314875373998     1.007825032070
           H          1.866070935007     0.698559360228    -2.573175373998     1.007825032070
           H         -3.116329064993     0.336159360228    -2.127575373998     1.007825032070
           H         -2.296029064993    -0.377740639772     0.563924626002     1.007825032070
           H          2.932870935007     0.116959360228     2.988324626002     1.007825032070
           H          2.108970935007     0.415059360228     1.475624626002     1.007825032070
           H          1.868670935007    -1.076440639772     4.643724626002     1.007825032070
           H          0.240770935007    -1.637440639772     4.441324626002     1.007825032070
           H         -0.934729064993    -1.014940639772     2.612024626002     1.007825032070

  Nuclear repulsion =  757.935946446283765
  Reference energy  = -580.370483408280847

  ==> Basis Set <==

  Basis Set: DEF2-SV(P)
    Number of shells: 98
    Number of basis function: 202
    Number of Cartesian functions: 215
    Spherical Harmonics?: true
    Max angular momentum: 2

  ==> CGRSolver (by Rob Parrish) <==

   Number of roots    =         1
   Preconditioning    =    JACOBI
   Convergence cutoff =     1E-06
   Maximum iterations =       100

  ==> CPHFRHamiltonian (by Rob Parrish) <== 

  ==> DFJK: Density-Fitted J/K Matrices <==

    J tasked:                  Yes
    K tasked:                  Yes
    wK tasked:                  No
    OpenMP threads:              1
    Integrals threads:           1
    Memory (MB):              3576
    Algorithm:                Core
    Integral Cache:           NONE
    Schwarz Cutoff:          1E-12
    Fitting Condition:       1E-12

   => Auxiliary Basis Set <=

  Basis Set: 
    Number of shells: 385
    Number of basis function: 1165
    Number of Cartesian functions: 1377
    Spherical Harmonics?: true
    Max angular momentum: 4

  ==> CPHF Iterations <==

  => Iterations <=

             Iter  Converged  Remaining    Residual
  CGR           1          0          1   1.267E-01
  CGR           2          0          1   3.913E-02
  CGR           3          0          1   2.013E-02
  CGR           4          0          1   6.182E-03
  CGR           5          0          1   3.434E-03
  CGR           6          0          1   1.249E-03
  CGR           7          0          1   4.747E-04
  CGR           8          0          1   1.629E-04
  CGR           9          0          1   5.717E-05
  CGR          10          0          1   2.245E-05
  CGR          11          0          1   5.878E-06
  CGR          12          0          1   2.018E-06
  CGR          13          1          0   9.340E-07

    CGRSolver converged.

  ==> DFCorrGrad: Density-Fitted Correlated Gradients <==

    OpenMP threads:              1
    Integrals threads:           1
    Memory (MB):              3576
    Schwarz Cutoff:          0E+00
    Fitting Condition:       1E-12

   => Auxiliary Basis Set <=

  Basis Set: 
    Number of shells: 385
    Number of basis function: 1165
    Number of Cartesian functions: 1377
    Spherical Harmonics?: true
    Max angular momentum: 4

	-----------------------------------------------------------
	 ==================> DF-MP2 Energies <==================== 
	-----------------------------------------------------------
	 Reference Energy          =    -580.3704834082808475 [Eh]
	 Singles Energy            =      -0.0000000000000001 [Eh]
	 Same-Spin Energy          =      -0.4866873473794878 [Eh]
	 Opposite-Spin Energy      =      -1.2896679470538344 [Eh]
	 Correlation Energy        =      -1.7763552944333225 [Eh]
	 Total Energy              =    -582.1468387027141489 [Eh]
	-----------------------------------------------------------
	 ================> DF-SCS-MP2 Energies <================== 
	-----------------------------------------------------------
	 SCS Same-Spin Scale       =       0.3333333333333333 [-]
	 SCS Opposite-Spin Scale   =       1.2000000000000000 [-]
	 SCS Same-Spin Energy      =      -0.1622291157931626 [Eh]
	 SCS Opposite-Spin Energy  =      -1.5476015364646012 [Eh]
	 SCS Correlation Energy    =      -1.7098306522577640 [Eh]
	 SCS Total Energy          =    -582.0803140605386261 [Eh]
	-----------------------------------------------------------


  -Total Gradient:
     Atom            X                  Y                   Z
    ------   -----------------  -----------------  -----------------
       1       -0.016030325770     0.001786862000    -0.011266620796
       2        0.013910022921     0.002787377820    -0.008068991725
       3       -0.000020791636    -0.003281849393     0.008995573980
       4       -0.001360048672    -0.001218042861     0.007952886465
       5       -0.017875408355    -0.008206078208     0.009513654313
       6        0.015495266715     0.004017205044    -0.002735204104
       7        0.020523145159    -0.014422117346     0.054930818303
       8       -0.024849262450    -0.007783341311    -0.007457633690
       9       -0.016918964250     0.009110236914    -0.025318041578
      10        0.005198299095     0.006628006864    -0.025268183999
      11        0.020193293672     0.005701742431     0.000387444095
      12        0.008856535664    -0.000307738430     0.003953980524
      13       -0.019139452902    -0.000671612983    -0.015583766500
      14       -0.002100163834    -0.000993569530     0.003577238801
      15        0.003070300993    -0.000614858608     0.002801663453
      16       -0.006761422383    -0.000738499204    -0.000006894340
      17        0.006184280152     0.000676991519    -0.000171966506
      18        0.009906084827     0.000908372388    -0.001266217240
      19       -0.005393067084     0.001745031054    -0.005118323298
      20        0.000881977770    -0.001583235407     0.014224115605
      21       -0.003405058152     0.000386793407    -0.004421346122
      22        0.002524509537     0.003597702721    -0.004234938438
      23        0.007110248973     0.002474621120     0.004580752790


			-----------------------------------------
			 OPTKING 2.0: for geometry optimizations 
			  - R.A. King,  Bethel University        
			-----------------------------------------

	Internal coordinates to be generated automatically.
	Detected frag 1 with atoms:  1 2 3 4 5 6 7 8 9 10 11 12 13 14 15 16 17 18 19 20
	 21 22 23
	---Fragment 1 Bond Connectivity---
	 1 : 2 3 14
	 2 : 1 4 15
	 3 : 1 5 16
	 4 : 2 6 17
	 5 : 3 6 9
	 6 : 4 5 10
	 7 : 9 10 13
	 8 : 11 12 13
	 9 : 5 7
	 10 : 6 7 18
	 11 : 8 19 20
	 12 : 8 21 22
	 13 : 7 8 23
	 14 : 1
	 15 : 2
	 16 : 3
	 17 : 4
	 18 : 10
	 19 : 11
	 20 : 11
	 21 : 12
	 22 : 12
	 23 : 13

	---Fragment 1 Geometry and Gradient---
	 C          -0.0977537659        1.5999543187       -6.7534567173
	 C          -2.7214495288        1.4245877335       -6.5127056080
	 C           1.4881044048        1.1796792267       -4.6749469437
	 C          -3.8503719206        0.7854823554       -4.2083735615
	 C           0.3850712610        0.5598490551       -2.3468043480
	 C          -2.2210500489        0.3438533581       -2.1816422840
	 C          -0.3568352188       -0.5195625120        1.5101266892
	 C           1.9023323731       -1.1049996679        5.3963484815
	 N           1.4947184462        0.0985669061       -0.0466296991
	 N          -2.6422700039       -0.3685733940        0.2733009352
	 N           3.9846215989        0.0507568349        4.5624123390
	 N           1.9484416907       -2.1199715739        7.7114519669
	 N          -0.2302235679       -1.2510754980        4.0115571713
	 H           0.7286234720        2.0742755780       -8.5779872986
	 H          -3.9138667187        1.7817459727       -8.1539327544
	 H           3.5263630117        1.3200858784       -4.8625967487
	 H          -5.8890084728        0.6352491278       -4.0205347839
	 H          -4.3388661260       -0.7138263584        1.0656631027
	 H           5.5423228503        0.2210211595        5.6471151393
	 H           3.9853774894        0.7843485197        2.7885264181
	 H           3.5312762996       -2.0341780075        8.7753677797
	 H           0.4549911279       -3.0943143680        8.3928872104
	 H          -1.7663819413       -1.9179598503        4.9360111955
	            -0.0160303258        0.0017868620       -0.0112666208
	             0.0139100229        0.0027873778       -0.0080689917
	            -0.0000207916       -0.0032818494        0.0089955740
	            -0.0013600487       -0.0012180429        0.0079528865
	            -0.0178754084       -0.0082060782        0.0095136543
	             0.0154952667        0.0040172050       -0.0027352041
	             0.0205231452       -0.0144221173        0.0549308183
	            -0.0248492625       -0.0077833413       -0.0074576337
	            -0.0169189642        0.0091102369       -0.0253180416
	             0.0051982991        0.0066280069       -0.0252681840
	             0.0201932937        0.0057017424        0.0003874441
	             0.0088565357       -0.0003077384        0.0039539805
	            -0.0191394529       -0.0006716130       -0.0155837665
	            -0.0021001638       -0.0009935695        0.0035772388
	             0.0030703010       -0.0006148586        0.0028016635
	            -0.0067614224       -0.0007384992       -0.0000068943
	             0.0061842802        0.0006769915       -0.0001719665
	             0.0099060848        0.0009083724       -0.0012662172
	            -0.0053930671        0.0017450311       -0.0051183233
	             0.0008819778       -0.0015832354        0.0142241156
	            -0.0034050582        0.0003867934       -0.0044213461
	             0.0025245095        0.0035977027       -0.0042349384
	             0.0071102490        0.0024746211        0.0045807528

	Previous optimization step data not found.  Starting new optimization.

	---Fragment 1 Intrafragment Coordinates---
	 - Coordinate -           - BOHR/RAD -       - ANG/DEG -
	 H(9,20)          =         3.835595	       2.029709
	 R(1,2)           =         2.640548	       1.397318
	 R(1,3)           =         2.647977	       1.401249
	 R(1,14)          =         2.058347	       1.089230
	 R(2,4)           =         2.644403	       1.399358
	 R(2,15)          =         2.059866	       1.090034
	 R(3,5)           =         2.649740	       1.402182
	 R(3,16)          =         2.051688	       1.085707
	 R(4,6)           =         2.637682	       1.395801
	 R(4,17)          =         2.052777	       1.086283
	 R(5,6)           =         2.620267	       1.386586
	 R(5,9)           =         2.595169	       1.373304
	 R(6,10)          =         2.590700	       1.370939
	 R(7,9)           =         2.496763	       1.321230
	 R(7,10)          =         2.603027	       1.377462
	 R(7,13)          =         2.609271	       1.380767
	 R(8,11)          =         2.523321	       1.335284
	 R(8,12)          =         2.528240	       1.337887
	 R(8,13)          =         2.546916	       1.347770
	 R(10,18)         =         1.904068	       1.007590
	 R(11,19)         =         1.905782	       1.008496
	 R(11,20)         =         1.919591	       1.015804
	 R(12,21)         =         1.909095	       1.010249
	 R(12,22)         =         1.908951	       1.010173
	 R(13,23)         =         1.912886	       1.012256
	 B(1,2,4)         =         2.117280	     121.311187
	 B(1,2,15)        =         2.084064	     119.408074
	 B(1,3,5)         =         2.068597	     118.521861
	 B(1,3,16)        =         2.108681	     120.818538
	 B(2,1,3)         =         2.109431	     120.861493
	 B(2,1,14)        =         2.088672	     119.672107
	 B(2,4,6)         =         2.033446	     116.507891
	 B(2,4,17)        =         2.119280	     121.425819
	 B(3,1,14)        =         2.085078	     119.466197
	 B(3,5,6)         =         2.081393	     119.255010
	 B(3,5,9)         =         2.268346	     129.966624
	 B(4,2,15)        =         2.081825	     119.279797
	 B(4,6,5)         =         2.155726	     123.513985
	 B(4,6,10)        =         2.310029	     132.354938
	 B(5,3,16)        =         2.105893	     120.658763
	 B(5,6,10)        =         1.817398	     104.129215
	 B(5,9,7)         =         1.854125	     106.233552
	 B(6,4,17)        =         2.130448	     122.065695
	 B(6,5,9)         =         1.933447	     110.778355
	 B(6,10,7)        =         1.900169	     108.871678
	 B(6,10,18)       =         2.200705	     126.091137
	 B(7,10,18)       =         2.182272	     125.034955
	 B(7,13,8)        =         2.148130	     123.078774
	 B(7,13,23)       =         2.120077	     121.471486
	 B(8,11,19)       =         2.126232	     121.824093
	 B(8,11,20)       =         2.072331	     118.735811
	 B(8,12,21)       =         2.102946	     120.489951
	 B(8,12,22)       =         2.114737	     121.165523
	 B(8,13,23)       =         2.014889	     115.444649
	 B(9,7,10)        =         1.918225	     109.906220
	 B(9,7,13)        =         2.253848	     129.135998
	 B(10,7,13)       =         2.111077	     120.955792
	 B(11,8,12)       =         2.061740	     118.128982
	 B(11,8,13)       =         2.138313	     122.516305
	 B(12,8,13)       =         2.083026	     119.348624
	 B(19,11,20)      =         2.084605	     119.439085
	 B(21,12,22)      =         2.063085	     118.206050
	 D(1,2,4,6)       =         0.002805	       0.160721
	 D(1,2,4,17)      =        -3.133982	    -179.563937
	 D(1,3,5,6)       =         0.017472	       1.001092
	 D(1,3,5,9)       =        -3.123422	    -178.958921
	 D(2,1,3,5)       =         0.007995	       0.458054
	 D(2,1,3,16)      =        -3.139372	    -179.872786
	 D(2,4,6,5)       =         0.024003	       1.375275
	 D(2,4,6,10)      =        -3.107476	    -178.045283
	 D(3,1,2,4)       =        -0.018455	      -1.057418
	 D(3,1,2,15)      =         3.129346	     179.298347
	 D(3,5,6,4)       =        -0.034584	      -1.981517
	 D(3,5,6,10)      =         3.099302	     177.576929
	 D(3,5,9,7)       =        -3.090041	    -177.046324
	 D(4,2,1,14)      =         3.126013	     179.107353
	 D(4,6,5,9)       =         3.106437	     177.985705
	 D(4,6,10,7)      =        -3.132686	    -179.489660
	 D(4,6,10,18)     =        -0.000224	      -0.012817
	 D(5,3,1,14)      =        -3.136468	    -179.706381
	 D(5,6,4,17)      =        -3.122429	    -178.901977
	 D(5,6,10,7)      =         0.017602	       1.008520
	 D(5,6,10,18)     =        -3.133121	    -179.514637
	 D(5,9,7,10)      =        -0.039904	      -2.286340
	 D(5,9,7,13)      =         3.092649	     177.195742
	 D(6,4,2,15)      =         3.138196	     179.805404
	 D(6,5,3,16)      =        -3.118356	    -178.668616
	 D(6,5,9,7)       =         0.052203	       2.990990
	 D(6,10,7,9)      =         0.014100	       0.807851
	 D(6,10,7,13)     =        -3.119317	    -178.723704
	 D(7,13,8,11)     =         0.150470	       8.621287
	 D(7,13,8,12)     =        -3.007093	    -172.293735
	 D(8,13,7,9)      =         0.169626	       9.718857
	 D(8,13,7,10)     =        -2.981878	    -170.849001
	 D(9,5,3,16)      =         0.023935	       1.371371
	 D(9,5,6,10)      =        -0.042863	      -2.455850
	 D(9,7,10,18)     =        -3.118482	    -178.675842
	 D(9,7,13,23)     =        -2.986952	    -171.139742
	 D(10,6,4,17)     =         0.029277	       1.677466
	 D(10,7,13,23)    =         0.144730	       8.292400
	 D(11,8,12,21)    =        -0.018726	      -1.072918
	 D(11,8,12,22)    =        -3.084318	    -176.718391
	 D(11,8,13,23)    =        -2.976969	    -170.567755
	 D(12,8,11,19)    =        -0.036030	      -2.064347
	 D(12,8,11,20)    =         3.111987	     178.303718
	 D(12,8,13,23)    =         0.148654	       8.517223
	 D(13,7,10,18)    =         0.031287	       1.792603
	 D(13,8,11,19)    =         3.089778	     177.031252
	 D(13,8,11,20)    =        -0.045390	      -2.600684
	 D(13,8,12,21)    =         3.138137	     179.801998
	 D(13,8,12,22)    =         0.072545	       4.156526
	 D(14,1,2,15)     =        -0.009370	      -0.536883
	 D(14,1,3,16)     =        -0.000650	      -0.037221
	 D(15,2,4,17)     =         0.001409	       0.080746
	 R(9,11)          =         5.238814	       2.772261

	Current energy   :      -582.1468387027

	Generating empirical Hessian (Schlegel '84) for each fragment.
	Taking RFO optimization step.
	Going to follow RFO solution 1.
	Using RFO vector 1.
	Norm of target step-size    0.35363
	Projected energy change by RFO approximation:        -0.0141580206

	Back-transformation to cartesian coordinates...
	Could not converge backtransformation.
	Using first guess instead.

	--- Internal Coordinate Step in ANG or DEG, aJ/ANG or AJ/DEG ---
	 ---------------------------------------------------------------------------
	   Coordinate                Previous        Force       Change         New 
	   ----------                --------       ------       ------       ------
	    1 H(9,20)         =      2.029709    -0.045030    -0.032041     1.997668
	    2 R(1,2)          =      1.397318     0.159755     0.022795     1.420113
	    3 R(1,3)          =      1.401249    -0.053169    -0.007792     1.393457
	    4 R(1,14)         =      1.089230     0.034957     0.007245     1.096475
	    5 R(2,4)          =      1.399358    -0.023824    -0.002417     1.396940
	    6 R(2,15)         =      1.090034     0.033912     0.006055     1.096089
	    7 R(3,5)          =      1.402182     0.024781     0.005515     1.407697
	    8 R(3,16)         =      1.085707     0.055752     0.011181     1.096888
	    9 R(4,6)          =      1.395801     0.034592     0.005671     1.401472
	   10 R(4,17)         =      1.086283     0.051137     0.010322     1.096604
	   11 R(5,6)          =      1.386586     0.229490     0.035018     1.421604
	   12 R(5,9)          =      1.373304     0.039260     0.005633     1.378937
	   13 R(6,10)         =      1.370939     0.076603     0.010552     1.381492
	   14 R(7,9)          =      1.321230    -0.047857    -0.005536     1.315694
	   15 R(7,10)         =      1.377462    -0.032870    -0.003902     1.373560
	   16 R(7,13)         =      1.380767     0.150163     0.020986     1.401753
	   17 R(8,11)         =      1.335284    -0.086347    -0.002326     1.332959
	   18 R(8,12)         =      1.337887     0.046437     0.010856     1.348743
	   19 R(8,13)         =      1.347770     0.059974     0.007220     1.354990
	   20 R(10,18)        =      1.007590     0.078419     0.010611     1.018201
	   21 R(11,19)        =      1.008496     0.059033     0.008796     1.017292
	   22 R(11,20)        =      1.015804     0.085605     0.023294     1.039098
	   23 R(12,21)        =      1.010249     0.043416     0.006798     1.017048
	   24 R(12,22)        =      1.010173     0.043855     0.010281     1.020454
	   25 R(13,23)        =      1.012256     0.035912     0.005676     1.017932
	   26 B(1,2,4)        =    121.311187     0.000278     0.738313   122.049500
	   27 B(1,2,15)       =    119.408074    -0.000073    -0.060985   119.347089
	   28 B(1,3,5)        =    118.521861    -0.000449    -1.384565   117.137296
	   29 B(1,3,16)       =    120.818538     0.000267     0.831877   121.650415
	   30 B(2,1,3)        =    120.861493     0.000352     0.834293   121.695786
	   31 B(2,1,14)       =    119.672107    -0.000142    -0.191581   119.480526
	   32 B(2,4,6)        =    116.507891    -0.000229    -0.602034   115.905857
	   33 B(2,4,17)       =    121.425819     0.000089     0.223195   121.649014
	   34 B(3,1,14)       =    119.466197    -0.000210    -0.642759   118.823438
	   35 B(3,5,6)        =    119.255010     0.000346     1.177068   120.432078
	   36 B(3,5,9)        =    129.966624    -0.000004    -0.589118   129.377506
	   37 B(4,2,15)       =    119.279797    -0.000205    -0.676403   118.603393
	   38 B(4,6,5)        =    123.513985    -0.000296    -0.740088   122.773897
	   39 B(4,6,10)       =    132.354938     0.000092    -0.475063   131.879875
	   40 B(5,3,16)       =    120.658763     0.000182     0.551072   121.209835
	   41 B(5,6,10)       =    104.129215     0.000205     1.212958   105.342173
	   42 B(5,9,7)        =    106.233552    -0.000615    -1.962861   104.270691
	   43 B(6,4,17)       =    122.065695     0.000140     0.378760   122.444455
	   44 B(6,5,9)        =    110.778355    -0.000343    -0.599496   110.178859
	   45 B(6,10,7)       =    108.871678    -0.001083    -3.267707   105.603971
	   46 B(6,10,18)      =    126.091137     0.000313     0.640842   126.731979
	   47 B(7,10,18)      =    125.034955     0.000770     2.624452   127.659407
	   48 B(7,13,8)       =    123.078774     0.000873     2.931570   126.010345
	   49 B(7,13,23)      =    121.471486    -0.000979    -3.754349   117.717136
	   50 B(8,11,19)      =    121.824093    -0.000303    -1.044890   120.779203
	   51 B(8,11,20)      =    118.735811     0.000298     1.391235   120.127046
	   52 B(8,12,21)      =    120.489951     0.000037     0.023446   120.513397
	   53 B(8,12,22)      =    121.165523     0.000196     1.088611   122.254134
	   54 B(8,13,23)      =    115.444649     0.000106     0.822288   116.266937
	   55 B(9,7,10)       =    109.906220     0.001846     4.689672   114.595892
	   56 B(9,7,13)       =    129.135998    -0.001546    -3.955363   125.180634
	   57 B(10,7,13)      =    120.955792    -0.000300    -0.732351   120.223440
	   58 B(11,8,12)      =    118.128982     0.000878     2.770337   120.899318
	   59 B(11,8,13)      =    122.516305    -0.000347    -1.153743   121.362562
	   60 B(12,8,13)      =    119.348624    -0.000530    -1.611258   117.737366
	   61 B(19,11,20)     =    119.439085     0.000007    -0.520257   118.918829
	   62 B(21,12,22)     =    118.206050    -0.000232    -1.107502   117.098548
	   63 D(1,2,4,6)      =      0.160721    -0.000002    -0.078370     0.082351
	   64 D(1,2,4,17)     =   -179.563937    -0.000008    -0.645570  -180.209507
	   65 D(1,3,5,6)      =      1.001092    -0.000005    -0.526406     0.474686
	   66 D(1,3,5,9)      =   -178.958921    -0.000022    -1.932061  -180.890982
	   67 D(2,1,3,5)      =      0.458054    -0.000004    -0.285816     0.172238
	   68 D(2,1,3,16)     =   -179.872786    -0.000006    -0.518353  -180.391139
	   69 D(2,4,6,5)      =      1.375275    -0.000009    -0.792164     0.583111
	   70 D(2,4,6,10)     =   -178.045283    -0.000023    -2.217691  -180.262974
	   71 D(3,1,2,4)      =     -1.057418     0.000005     0.590257    -0.467161
	   72 D(3,1,2,15)     =    179.298347     0.000000     0.184898   179.483245
	   73 D(3,5,6,4)      =     -1.981517     0.000010     1.093448    -0.888068
	   74 D(3,5,6,10)     =    177.576929     0.000020     2.188222   179.765151
	   75 D(3,5,9,7)      =   -177.046324    -0.000033    -2.613154  -179.659478
	   76 D(4,2,1,14)     =    179.107353     0.000001     0.241086   179.348439
	   77 D(4,6,5,9)      =    177.985705     0.000024     2.250862   180.236567
	   78 D(4,6,10,7)     =   -179.489660    -0.000003    -0.262890  -179.752549
	   79 D(4,6,10,18)    =     -0.012817    -0.000005    -0.478447    -0.491263
	   80 D(5,3,1,14)     =   -179.706381    -0.000000     0.061843  -179.644537
	   81 D(5,6,4,17)     =   -178.901977    -0.000004    -0.220507  -179.122483
	   82 D(5,6,10,7)     =      1.008520    -0.000014    -1.498752    -0.490232
	   83 D(5,6,10,18)    =   -179.514637    -0.000017    -1.714309  -181.228946
	   84 D(5,9,7,10)     =     -2.286340     0.000027     2.901129     0.614789
	   85 D(5,9,7,13)     =    177.195742     0.000035     3.352400   180.548142
	   86 D(6,4,2,15)     =    179.805404     0.000002     0.326185   180.131589
	   87 D(6,5,3,16)     =   -178.668616    -0.000002    -0.295962  -178.964579
	   88 D(6,5,9,7)      =      2.990990    -0.000049    -3.904972    -0.913982
	   89 D(6,10,7,9)     =      0.807851    -0.000009    -0.880372    -0.072521
	   90 D(6,10,7,13)    =   -178.723704    -0.000014    -1.285775  -180.009478
	   91 D(7,13,8,11)    =      8.621287    -0.000056    -5.266044     3.355243
	   92 D(7,13,8,12)    =   -172.293735    -0.000042    -4.037826  -176.331562
	   93 D(8,13,7,9)     =      9.718857    -0.000024    -2.236848     7.482009
	   94 D(8,13,7,10)    =   -170.849001    -0.000014    -1.739123  -172.588124
	   95 D(9,5,3,16)     =      1.371371    -0.000019    -1.701617    -0.330247
	   96 D(9,5,6,10)     =     -2.455850     0.000034     3.345636     0.889786
	   97 D(9,7,10,18)    =   -178.675842    -0.000006    -0.648833  -179.324676
	   98 D(9,7,13,23)    =   -171.139742    -0.000023    -2.273243  -173.412985
	   99 D(10,6,4,17)    =      1.677466    -0.000017    -1.646034     0.031431
	  100 D(10,7,13,23)   =      8.292400    -0.000012    -1.775518     6.516882
	  101 D(11,8,12,21)   =     -1.072918     0.000012     1.054529    -0.018389
	  102 D(11,8,12,22)   =   -176.718391     0.000011     1.030005  -175.688385
	  103 D(11,8,13,23)   =   -170.567755    -0.000055    -5.193474  -175.761229
	  104 D(12,8,11,19)   =     -2.064347     0.000016     1.236868    -0.827479
	  105 D(12,8,11,20)   =    178.303718    -0.000040    -3.989732   174.313986
	  106 D(12,8,13,23)   =      8.517223    -0.000041    -3.965257     4.551966
	  107 D(13,7,10,18)   =      1.792603    -0.000011    -1.054236     0.738367
	  108 D(13,8,11,19)   =    177.031252     0.000027     2.464327   179.495578
	  109 D(13,8,11,20)   =     -2.600684    -0.000029    -2.762273    -5.362956
	  110 D(13,8,12,21)   =    179.801998     0.000001    -0.132057   179.669941
	  111 D(13,8,12,22)   =      4.156526    -0.000000    -0.156581     3.999945
	  112 D(14,1,2,15)    =     -0.536883    -0.000003    -0.164272    -0.701155
	  113 D(14,1,3,16)    =     -0.037221    -0.000003    -0.170694    -0.207914
	  114 D(15,2,4,17)    =      0.080746    -0.000003    -0.241015    -0.160268
	  115 R(9,11)         =      2.772261     0.002741    -0.014204     2.758057
	 ---------------------------------------------------------------------------
	Successfully symmetrized geometry.

  ==> Convergence Check <==

  Measures of convergence in internal coordinates in au.
  Criteria marked as inactive (o), active & met (*), and active & unmet ( ).
  --------------------------------------------------------------------------------------------- ~
   Step     Total Energy     Delta E     MAX Force     RMS Force      MAX Disp      RMS Disp    ~
  --------------------------------------------------------------------------------------------- ~
    Convergence Criteria    1.00e-06 *    3.00e-04 *             o    1.20e-03 *             o  ~
  --------------------------------------------------------------------------------------------- ~
      1    -582.14683870   -5.82e+02      2.79e-02      6.33e-03 o    9.19e-02      3.25e-02 o  ~
  ---------------------------------------------------------------------------------------------

	Writing optimization data to binary file.
	Structure for next step:
	Cartesian Geometry (in Angstrom)
	    C    -0.0467323600   0.9165813898  -3.5415403061
	    C    -1.4516310301   0.7402026167  -3.4325825560
	    C     0.8029264926   0.7143686813  -2.4557627505
	    C    -2.0588109626   0.3461157955  -2.2378145511
	    C     0.2099507943   0.3224522700  -1.2406942798
	    C    -1.1967834370   0.1371936576  -1.1527408987
	    C    -0.2015467584  -0.2779913611   0.7585804030
	    C     1.0397062483  -0.5708186599   2.8580657443
	    N     0.8034847874   0.0412657007  -0.0282092430
	    N    -1.4342969957  -0.2438705719   0.1537415925
	    N     2.1755804472  -0.0812458648   2.3611885302
	    N     0.9781652554  -1.0272480738   4.1257376730
	    N    -0.0880926651  -0.6338036066   2.1096677602
	    H     0.3864724914   1.2166483911  -4.5030757648
	    H    -2.0849574866   0.9179818553  -4.3093396039
	    H     1.8885953196   0.8446868885  -2.5423881600
	    H    -3.1447921296   0.2151484837  -2.1601369397
	    H    -2.3395774759  -0.4435572188   0.5748422748
	    H     3.0151778975  -0.0310797034   2.9334139712
	    H     2.2342145185   0.1850858727   1.3585155197
	    H     1.8008942256  -1.0046731667   4.7232268420
	    H     0.1387773491  -1.4648728848   4.5068393784
	    H    -0.9270930208  -0.9588052059   2.5857317624
			--------------------------
			 OPTKING Finished Execution 
			--------------------------

    Structure for next step:
    Molecular point group: c1
    Full point group: C1

    Geometry (in Angstrom), charge = 1, multiplicity = 1:

    C           -0.048069649995     0.915586989162    -3.541512627556
    C           -1.452968320021     0.739208215996    -3.432554877453
    C            0.801589202626     0.713374280628    -2.455735071878
    C           -2.060148252549     0.345121394874    -2.237786872483
    C            0.208613504315     0.321457869319    -1.240666601206
    C           -1.198120726954     0.136199256970    -1.152713220146
    C           -0.202884048331    -0.278985761803     0.758608081537
    C            1.038368958307    -0.571813060532     2.858093422858
    N            0.802147497392     0.040271300006    -0.028181564470
    N           -1.435634285644    -0.244864972597     0.153769271050
    N            2.174243157263    -0.082240265456     2.361216208807
    N            0.976827965476    -1.028242474450     4.125765351562
    N           -0.089429955043    -0.634798007224     2.109695438777
    H            0.385135201444     1.215653990432    -4.503048086199
    H           -2.086294776540     0.916987454606    -4.309311925288
    H            1.887258029615     0.843692487797    -2.542360481464
    H           -3.146129419512     0.214154083049    -2.160109261139
    H           -2.340914765885    -0.444551619432     0.574869953406
    H            3.013840607527    -0.032074104053     2.933441649773
    H            2.232877228586     0.184091472006     1.358543198300
    H            1.799556935615    -1.005667567322     4.723254520524
    H            0.137440059124    -1.465867285483     4.506867056946
    H           -0.928430310759    -0.959799606524     2.585759440948

gradient() will perform analytic gradient computation.
    SCF Algorithm Type (re)set to DF.

*** tstart() called on c-19-414.local
*** at Mon May  1 19:08:47 2017


         ---------------------------------------------------------
                                   SCF
            by Justin Turney, Rob Parrish, and Andy Simmonett
                              RHF Reference
                        1 Threads,   5000 MiB Core
         ---------------------------------------------------------

  ==> Geometry <==

    Molecular point group: c1
    Full point group: C1

    Geometry (in Angstrom), charge = 1, multiplicity = 1:

       Center              X                  Y                   Z               Mass       
    ------------   -----------------  -----------------  -----------------  -----------------
           C         -0.048069649995     0.915586989162    -3.541512627556    12.000000000000
           C         -1.452968320021     0.739208215996    -3.432554877453    12.000000000000
           C          0.801589202626     0.713374280628    -2.455735071878    12.000000000000
           C         -2.060148252549     0.345121394874    -2.237786872483    12.000000000000
           C          0.208613504315     0.321457869319    -1.240666601206    12.000000000000
           C         -1.198120726954     0.136199256970    -1.152713220146    12.000000000000
           C         -0.202884048331    -0.278985761803     0.758608081537    12.000000000000
           C          1.038368958307    -0.571813060532     2.858093422858    12.000000000000
           N          0.802147497392     0.040271300006    -0.028181564470    14.003074004780
           N         -1.435634285644    -0.244864972597     0.153769271050    14.003074004780
           N          2.174243157263    -0.082240265456     2.361216208807    14.003074004780
           N          0.976827965476    -1.028242474450     4.125765351562    14.003074004780
           N         -0.089429955043    -0.634798007224     2.109695438777    14.003074004780
           H          0.385135201444     1.215653990432    -4.503048086199     1.007825032070
           H         -2.086294776540     0.916987454606    -4.309311925288     1.007825032070
           H          1.887258029615     0.843692487797    -2.542360481464     1.007825032070
           H         -3.146129419512     0.214154083049    -2.160109261139     1.007825032070
           H         -2.340914765885    -0.444551619432     0.574869953406     1.007825032070
           H          3.013840607527    -0.032074104053     2.933441649773     1.007825032070
           H          2.232877228586     0.184091472006     1.358543198300     1.007825032070
           H          1.799556935615    -1.005667567322     4.723254520524     1.007825032070
           H          0.137440059124    -1.465867285483     4.506867056946     1.007825032070
           H         -0.928430310759    -0.959799606524     2.585759440948     1.007825032070

  Running in c1 symmetry.

  Rotational constants: A =      0.08890  B =      0.01406  C =      0.01216 [cm^-1]
  Rotational constants: A =   2665.19911  B =    421.38466  C =    364.49511 [MHz]
  Nuclear repulsion =  754.681530275211799

  Charge       = 1
  Multiplicity = 1
  Electrons    = 92
  Nalpha       = 46
  Nbeta        = 46

  ==> Algorithm <==

  SCF Algorithm Type is DF.
  DIIS enabled.
  MOM disabled.
  Fractional occupation disabled.
  Guess Type is READ.
  Energy threshold   = 1.00e-10
  Density threshold  = 1.00e-10
  Integral threshold = 0.00e+00

  ==> Primary Basis <==

  Basis Set: DEF2-SV(P)
    Number of shells: 98
    Number of basis function: 202
    Number of Cartesian functions: 215
    Spherical Harmonics?: true
    Max angular momentum: 2

  ==> Pre-Iterations <==

   -------------------------------------------------------
    Irrep   Nso     Nmo     Nalpha   Nbeta   Ndocc  Nsocc
   -------------------------------------------------------
     A        202     202       0       0       0       0
   -------------------------------------------------------
    Total     202     202      46      46      46       0
   -------------------------------------------------------

  ==> Integral Setup <==

  ==> DFJK: Density-Fitted J/K Matrices <==

    J tasked:                  Yes
    K tasked:                  Yes
    wK tasked:                  No
    OpenMP threads:              1
    Integrals threads:           1
    Memory (MB):              3576
    Algorithm:                Core
    Integral Cache:           NONE
    Schwarz Cutoff:          1E-12
    Fitting Condition:       1E-12

   => Auxiliary Basis Set <=

  Basis Set: 
    Number of shells: 385
    Number of basis function: 1165
    Number of Cartesian functions: 1377
    Spherical Harmonics?: true
    Max angular momentum: 4

  Minimum eigenvalue in the overlap matrix is 2.6315957923E-04.
  Using Symmetric Orthogonalization.
  SCF Guess: Reading in previously saved MOs, projecting if necessary.

  Using orbitals from previous SCF, no projection.
  Recomputing DOCC and SOCC from number of alpha and beta electrons from previous calculation.
              A 
    DOCC [    46 ]

  ==> Iterations <==

                           Total Energy        Delta E     RMS |[F,P]|

   @DF-RHF iter   0:  -580.22375218234356   -5.80224e+02   1.75736e-03 
   @DF-RHF iter   1:  -580.37085791623986   -1.47106e-01   2.76011e-04 
   @DF-RHF iter   2:  -580.37329386386250   -2.43595e-03   1.24368e-04 DIIS
   @DF-RHF iter   3:  -580.37369149836150   -3.97634e-04   4.78211e-05 DIIS
   @DF-RHF iter   4:  -580.37379096174686   -9.94634e-05   1.31299e-05 DIIS
   @DF-RHF iter   5:  -580.37379632058696   -5.35884e-06   4.75406e-06 DIIS
   @DF-RHF iter   6:  -580.37379751904723   -1.19846e-06   1.94672e-06 DIIS
   @DF-RHF iter   7:  -580.37379771767314   -1.98626e-07   7.42882e-07 DIIS
   @DF-RHF iter   8:  -580.37379776347029   -4.57972e-08   3.32965e-07 DIIS
   @DF-RHF iter   9:  -580.37379777601677   -1.25465e-08   1.61577e-07 DIIS
   @DF-RHF iter  10:  -580.37379777892124   -2.90447e-09   6.18554e-08 DIIS
   @DF-RHF iter  11:  -580.37379777933143   -4.10182e-10   1.81575e-08 DIIS
   @DF-RHF iter  12:  -580.37379777935053   -1.90994e-11   6.60851e-09 DIIS
   @DF-RHF iter  13:  -580.37379777935485   -4.32010e-12   2.22130e-09 DIIS
   @DF-RHF iter  14:  -580.37379777935371    1.13687e-12   8.62085e-10 DIIS
   @DF-RHF iter  15:  -580.37379777935462   -9.09495e-13   3.40987e-10 DIIS
   @DF-RHF iter  16:  -580.37379777935416    4.54747e-13   1.45666e-10 DIIS
   @DF-RHF iter  17:  -580.37379777935371    4.54747e-13   7.06172e-11 DIIS

  ==> Post-Iterations <==

    Orbital Energies (a.u.)
    -----------------------

    Doubly Occupied:                                                      

       1A    -15.812893     2A    -15.790738     3A    -15.775361  
       4A    -15.761366     5A    -15.696448     6A    -11.610283  
       7A    -11.519066     8A    -11.396578     9A    -11.379970  
      10A    -11.349800    11A    -11.343577    12A    -11.341213  
      13A    -11.335168    14A     -1.540319    15A     -1.482554  
      16A     -1.393905    17A     -1.371412    18A     -1.316272  
      19A     -1.233346    20A     -1.127403    21A     -1.109352  
      22A     -1.059361    23A     -1.000682    24A     -0.986982  
      25A     -0.967169    26A     -0.929090    27A     -0.918427  
      28A     -0.872206    29A     -0.862684    30A     -0.851489  
      31A     -0.826700    32A     -0.819946    33A     -0.795248  
      34A     -0.755620    35A     -0.733514    36A     -0.714505  
      37A     -0.712867    38A     -0.651151    39A     -0.632006  
      40A     -0.624817    41A     -0.614851    42A     -0.583449  
      43A     -0.583092    44A     -0.561391    45A     -0.427731  
      46A     -0.413851  

    Virtual:                                                              

      47A     -0.027606    48A     -0.015931    49A      0.020608  
      50A      0.031029    51A      0.042578    52A      0.049000  
      53A      0.071500    54A      0.086304    55A      0.103259  
      56A      0.109303    57A      0.126710    58A      0.150251  
      59A      0.166469    60A      0.175447    61A      0.191587  
      62A      0.223611    63A      0.256362    64A      0.261489  
      65A      0.292495    66A      0.306181    67A      0.322465  
      68A      0.325059    69A      0.348180    70A      0.358101  
      71A      0.369456    72A      0.375518    73A      0.394374  
      74A      0.441382    75A      0.449223    76A      0.485488  
      77A      0.490078    78A      0.503846    79A      0.515819  
      80A      0.546346    81A      0.563528    82A      0.570048  
      83A      0.577389    84A      0.586380    85A      0.592815  
      86A      0.594737    87A      0.606387    88A      0.611295  
      89A      0.638830    90A      0.655053    91A      0.679774  
      92A      0.687566    93A      0.741687    94A      0.746829  
      95A      0.756017    96A      0.780994    97A      0.807228  
      98A      0.812276    99A      0.822845   100A      0.827450  
     101A      0.832229   102A      0.843105   103A      0.851390  
     104A      0.853413   105A      0.862607   106A      0.873694  
     107A      0.884959   108A      0.899533   109A      0.921155  
     110A      0.928356   111A      0.945135   112A      0.949185  
     113A      0.957415   114A      0.961584   115A      0.980254  
     116A      0.994707   117A      1.011582   118A      1.027774  
     119A      1.036886   120A      1.074801   121A      1.105955  
     122A      1.150930   123A      1.178260   124A      1.212704  
     125A      1.226012   126A      1.265992   127A      1.291485  
     128A      1.334931   129A      1.359759   130A      1.373840  
     131A      1.385586   132A      1.406541   133A      1.425349  
     134A      1.460363   135A      1.483750   136A      1.517196  
     137A      1.532883   138A      1.534620   139A      1.554900  
     140A      1.573097   141A      1.591098   142A      1.621098  
     143A      1.651081   144A      1.663605   145A      1.672291  
     146A      1.681362   147A      1.710686   148A      1.897916  
     149A      1.952542   150A      1.974377   151A      2.034963  
     152A      2.043685   153A      2.091574   154A      2.121912  
     155A      2.161672   156A      2.166340   157A      2.170848  
     158A      2.186402   159A      2.216762   160A      2.230954  
     161A      2.242996   162A      2.245402   163A      2.265174  
     164A      2.294013   165A      2.301055   166A      2.373420  
     167A      2.384441   168A      2.420295   169A      2.461011  
     170A      2.467121   171A      2.497651   172A      2.513703  
     173A      2.600843   174A      2.621152   175A      2.645860  
     176A      2.647176   177A      2.688454   178A      2.693822  
     179A      2.695999   180A      2.723786   181A      2.775415  
     182A      2.800637   183A      2.830017   184A      2.871836  
     185A      2.884533   186A      2.910134   187A      2.915558  
     188A      2.963953   189A      2.969378   190A      3.022364  
     191A      3.022857   192A      3.058032   193A      3.092622  
     194A      3.104984   195A      3.162023   196A      3.316320  
     197A      3.334376   198A      3.389184   199A      3.503712  
     200A      3.543087   201A      3.630892   202A      3.802998  

    Final Occupation by Irrep:
              A 
    DOCC [    46 ]

  Energy converged.

  @DF-RHF Final Energy:  -580.37379777935371

   => Energetics <=

    Nuclear Repulsion Energy =            754.6815302752117987
    One-Electron Energy =               -2270.9389521645935019
    Two-Electron Energy =                 935.8836241100274265
    DFT Exchange-Correlation Energy =       0.0000000000000000
    Empirical Dispersion Energy =           0.0000000000000000
    PCM Polarization Energy =               0.0000000000000000
    EFP Energy =                            0.0000000000000000
    Total Energy =                       -580.3737977793542768


  Saving occupied orbitals to File 180.

*** tstop() called on c-19-414.local at Mon May  1 19:09:10 2017
Module time:
	user time   =      16.95 seconds =       0.28 minutes
	system time =       0.83 seconds =       0.01 minutes
	total time  =         23 seconds =       0.38 minutes
Total time:
	user time   =     102.95 seconds =       1.72 minutes
	system time =       5.72 seconds =       0.10 minutes
	total time  =        180 seconds =       3.00 minutes


Properties will be evaluated at   0.000000,   0.000000,   0.000000 Bohr

Properties computed using the SCF density matrix

  Nuclear Dipole Moment: (a.u.)
     X:     0.8876      Y:    -0.4944      Z:     2.9445

  Electronic Dipole Moment: (a.u.)
     X:    -0.5070      Y:    -0.6918      Z:     1.8624

  Dipole Moment: (a.u.)
     X:     0.3806      Y:    -1.1862      Z:     4.8069     Total:     4.9657

  Dipole Moment: (Debye)
     X:     0.9675      Y:    -3.0149      Z:    12.2180     Total:    12.6216


  //>>>>>>>>>>>>>>>>>>>>>>>>>>>>>>>>>>>//
  //               DFMP2               //
  //<<<<<<<<<<<<<<<<<<<<<<<<<<<<<<<<<<<//


*** tstart() called on c-19-414.local
*** at Mon May  1 19:09:10 2017


*** tstop() called on c-19-414.local at Mon May  1 19:09:10 2017
Module time:
	user time   =       0.21 seconds =       0.00 minutes
	system time =       0.00 seconds =       0.00 minutes
	total time  =          0 seconds =       0.00 minutes
Total time:
	user time   =     103.17 seconds =       1.72 minutes
	system time =       5.72 seconds =       0.10 minutes
	total time  =        180 seconds =       3.00 minutes
	 --------------------------------------------------------
	                          DF-MP2                         
	      2nd-Order Density-Fitted Moller-Plesset Theory     
	              RMP2 Wavefunction,   1 Threads             
	                                                         
	        Rob Parrish, Justin Turney, Andy Simmonett,      
	           Ed Hohenstein, and C. David Sherrill          
	 --------------------------------------------------------

   => Auxiliary Basis Set <=

  Basis Set: DEF2-SV(P)-RI
    Number of shells: 268
    Number of basis function: 764
    Number of Cartesian functions: 865
    Spherical Harmonics?: true
    Max angular momentum: 3

	 --------------------------------------------------------
	                 NBF =   202, NAUX =   764
	 --------------------------------------------------------
	   CLASS    FOCC     OCC    AOCC    AVIR     VIR    FVIR
	   PAIRS      13      46      33     156     156       0
	 --------------------------------------------------------

DGAS Warning! /src/lib/libfock/apps.cc:80 is not currently checking restricted

         ------------------------------------------------------------
                                     CPHF                           
                                  Rob Parrish                       
         ------------------------------------------------------------

  ==> Geometry <==

    Molecular point group: c1
    Full point group: C1

    Geometry (in Angstrom), charge = 1, multiplicity = 1:

       Center              X                  Y                   Z               Mass       
    ------------   -----------------  -----------------  -----------------  -----------------
           C         -0.048069649995     0.915586989162    -3.541512627556    12.000000000000
           C         -1.452968320021     0.739208215996    -3.432554877453    12.000000000000
           C          0.801589202626     0.713374280628    -2.455735071878    12.000000000000
           C         -2.060148252549     0.345121394874    -2.237786872483    12.000000000000
           C          0.208613504315     0.321457869319    -1.240666601206    12.000000000000
           C         -1.198120726954     0.136199256970    -1.152713220146    12.000000000000
           C         -0.202884048331    -0.278985761803     0.758608081537    12.000000000000
           C          1.038368958307    -0.571813060532     2.858093422858    12.000000000000
           N          0.802147497392     0.040271300006    -0.028181564470    14.003074004780
           N         -1.435634285644    -0.244864972597     0.153769271050    14.003074004780
           N          2.174243157263    -0.082240265456     2.361216208807    14.003074004780
           N          0.976827965476    -1.028242474450     4.125765351562    14.003074004780
           N         -0.089429955043    -0.634798007224     2.109695438777    14.003074004780
           H          0.385135201444     1.215653990432    -4.503048086199     1.007825032070
           H         -2.086294776540     0.916987454606    -4.309311925288     1.007825032070
           H          1.887258029615     0.843692487797    -2.542360481464     1.007825032070
           H         -3.146129419512     0.214154083049    -2.160109261139     1.007825032070
           H         -2.340914765885    -0.444551619432     0.574869953406     1.007825032070
           H          3.013840607527    -0.032074104053     2.933441649773     1.007825032070
           H          2.232877228586     0.184091472006     1.358543198300     1.007825032070
           H          1.799556935615    -1.005667567322     4.723254520524     1.007825032070
           H          0.137440059124    -1.465867285483     4.506867056946     1.007825032070
           H         -0.928430310759    -0.959799606524     2.585759440948     1.007825032070

  Nuclear repulsion =  754.681530275211799
  Reference energy  = -580.373797779353708

  ==> Basis Set <==

  Basis Set: DEF2-SV(P)
    Number of shells: 98
    Number of basis function: 202
    Number of Cartesian functions: 215
    Spherical Harmonics?: true
    Max angular momentum: 2

  ==> CGRSolver (by Rob Parrish) <==

   Number of roots    =         1
   Preconditioning    =    JACOBI
   Convergence cutoff =     1E-06
   Maximum iterations =       100

  ==> CPHFRHamiltonian (by Rob Parrish) <== 

  ==> DFJK: Density-Fitted J/K Matrices <==

    J tasked:                  Yes
    K tasked:                  Yes
    wK tasked:                  No
    OpenMP threads:              1
    Integrals threads:           1
    Memory (MB):              3576
    Algorithm:                Core
    Integral Cache:           NONE
    Schwarz Cutoff:          1E-12
    Fitting Condition:       1E-12

   => Auxiliary Basis Set <=

  Basis Set: 
    Number of shells: 385
    Number of basis function: 1165
    Number of Cartesian functions: 1377
    Spherical Harmonics?: true
    Max angular momentum: 4

  ==> CPHF Iterations <==

  => Iterations <=

             Iter  Converged  Remaining    Residual
  CGR           1          0          1   1.260E-01
  CGR           2          0          1   3.836E-02
  CGR           3          0          1   1.953E-02
  CGR           4          0          1   6.071E-03
  CGR           5          0          1   3.370E-03
  CGR           6          0          1   1.249E-03
  CGR           7          0          1   4.785E-04
  CGR           8          0          1   1.670E-04
  CGR           9          0          1   6.030E-05
  CGR          10          0          1   2.372E-05
  CGR          11          0          1   6.947E-06
  CGR          12          0          1   3.096E-06
  CGR          13          0          1   1.580E-06
  CGR          14          1          0   6.102E-07

    CGRSolver converged.

  ==> DFCorrGrad: Density-Fitted Correlated Gradients <==

    OpenMP threads:              1
    Integrals threads:           1
    Memory (MB):              3576
    Schwarz Cutoff:          0E+00
    Fitting Condition:       1E-12

   => Auxiliary Basis Set <=

  Basis Set: 
    Number of shells: 385
    Number of basis function: 1165
    Number of Cartesian functions: 1377
    Spherical Harmonics?: true
    Max angular momentum: 4

	-----------------------------------------------------------
	 ==================> DF-MP2 Energies <==================== 
	-----------------------------------------------------------
	 Reference Energy          =    -580.3737977793537084 [Eh]
	 Singles Energy            =      -0.0000000000000002 [Eh]
	 Same-Spin Energy          =      -0.4871803832298405 [Eh]
	 Opposite-Spin Energy      =      -1.2934898456669170 [Eh]
	 Correlation Energy        =      -1.7806702288967577 [Eh]
	 Total Energy              =    -582.1544680082504328 [Eh]
	-----------------------------------------------------------
	 ================> DF-SCS-MP2 Energies <================== 
	-----------------------------------------------------------
	 SCS Same-Spin Scale       =       0.3333333333333333 [-]
	 SCS Opposite-Spin Scale   =       1.2000000000000000 [-]
	 SCS Same-Spin Energy      =      -0.1623934610766135 [Eh]
	 SCS Opposite-Spin Energy  =      -1.5521878148003003 [Eh]
	 SCS Correlation Energy    =      -1.7145812758769141 [Eh]
	 SCS Total Energy          =    -582.0883790552305754 [Eh]
	-----------------------------------------------------------


  -Total Gradient:
     Atom            X                  Y                   Z
    ------   -----------------  -----------------  -----------------
       1        0.001164449821     0.000075567394    -0.000527915302
       2       -0.000341356287     0.000175980683    -0.000350659229
       3        0.001684774219     0.001048288706    -0.000362923522
       4       -0.002307861735    -0.001124507752     0.001739007527
       5        0.003194278549    -0.000464581983     0.007627720465
       6       -0.001057875465    -0.002370228461     0.005436657574
       7        0.003873832018    -0.000544662080     0.005109505873
       8       -0.006241693901     0.000978457684     0.000098778372
       9        0.002709319557     0.001035368213    -0.012458608243
      10       -0.010727825672     0.000496275230    -0.006519502822
      11        0.006350786358     0.001348876075     0.001688627114
      12        0.001091166771    -0.003051620499     0.005177010773
      13       -0.005330447272     0.000508039514    -0.007217380650
      14        0.001571656191    -0.000104930049     0.000034549844
      15       -0.000790239047    -0.000050254413     0.000454657226
      16        0.001508036247     0.000091490959    -0.000930472680
      17       -0.001107743995     0.000090671336     0.000347823977
      18       -0.000401287118    -0.000473652537     0.001289501653
      19        0.000555007014     0.001335214690    -0.000953062147
      20        0.007292072486     0.002480116112    -0.003100887134
      21        0.000533208605     0.000225908146    -0.000155878597
      22       -0.003226153619    -0.002275513907     0.001679772859
      23        0.000003896287     0.000569696938     0.001893677056


			-----------------------------------------
			 OPTKING 2.0: for geometry optimizations 
			  - R.A. King,  Bethel University        
			-----------------------------------------

	Previous internal coordinate definitions found.
	---Fragment 1 Geometry and Gradient---
	 C          -0.0908384738        1.7302086603       -6.6924889622
	 C          -2.7457122046        1.3969010834       -6.4865886545
	 C           1.5147840640        1.3480820206       -4.6406667408
	 C          -3.8931159905        0.6521849189       -4.2288043328
	 C           0.3942223908        0.6074673363       -2.3445200985
	 C          -2.2641200481        0.2573792952       -2.1783122958
	 C          -0.3833952881       -0.5272066848        1.4335615163
	 C           1.9622329561       -1.0805700836        5.4010138314
	 N           1.5158390883        0.0761017280       -0.0532554388
	 N          -2.7129556268       -0.4627277377        0.2905818099
	 N           4.1087241135       -0.1554115788        4.4620519752
	 N           1.8459373337       -1.9430966749        7.7965666030
	 N          -0.1689981231       -1.1995943834        3.9867466031
	 H           0.7278000549        2.2972531143       -8.5095276461
	 H          -3.9425257601        1.7328551565       -8.1434193600
	 H           3.5664008181        1.5943477423       -4.8043650410
	 H          -5.9453229815        0.4046925672       -4.0820149207
	 H          -4.4236878080       -0.8400808127        1.0863467740
	 H           5.6953333564       -0.0606112726        5.5434013449
	 H           4.2195264504        0.3478824655        2.5672745845
	 H           3.4006697688       -1.9004362830        8.9256574997
	 H           0.2597240714       -2.7700877167        8.5167444550
	 H          -1.7544790208       -1.8137583988        4.8863771889
	             0.0011644498        0.0000755674       -0.0005279153
	            -0.0003413563        0.0001759807       -0.0003506592
	             0.0016847742        0.0010482887       -0.0003629235
	            -0.0023078617       -0.0011245078        0.0017390075
	             0.0031942785       -0.0004645820        0.0076277205
	            -0.0010578755       -0.0023702285        0.0054366576
	             0.0038738320       -0.0005446621        0.0051095059
	            -0.0062416939        0.0009784577        0.0000987784
	             0.0027093196        0.0010353682       -0.0124586082
	            -0.0107278257        0.0004962752       -0.0065195028
	             0.0063507864        0.0013488761        0.0016886271
	             0.0010911668       -0.0030516205        0.0051770108
	            -0.0053304473        0.0005080395       -0.0072173807
	             0.0015716562       -0.0001049300        0.0000345498
	            -0.0007902390       -0.0000502544        0.0004546572
	             0.0015080362        0.0000914910       -0.0009304727
	            -0.0011077440        0.0000906713        0.0003478240
	            -0.0004012871       -0.0004736525        0.0012895017
	             0.0005550070        0.0013352147       -0.0009530621
	             0.0072920725        0.0024801161       -0.0031008871
	             0.0005332086        0.0002259081       -0.0001558786
	            -0.0032261536       -0.0022755139        0.0016797729
	             0.0000038963        0.0005696969        0.0018936771

	---Fragment 1 Intrafragment Coordinates---
	 - Coordinate -           - BOHR/RAD -       - ANG/DEG -
	 H(9,20)          =         3.775045	       1.997668
	 R(1,2)           =         2.683625	       1.420113
	 R(1,3)           =         2.633253	       1.393457
	 R(1,14)          =         2.072037	       1.096475
	 R(2,4)           =         2.639835	       1.396940
	 R(2,15)          =         2.071308	       1.096089
	 R(3,5)           =         2.660161	       1.407697
	 R(3,16)          =         2.072818	       1.096888
	 R(4,6)           =         2.648399	       1.401472
	 R(4,17)          =         2.072282	       1.096604
	 R(5,6)           =         2.686442	       1.421604
	 R(5,9)           =         2.605814	       1.378937
	 R(6,10)          =         2.610641	       1.381492
	 R(7,9)           =         2.486302	       1.315694
	 R(7,10)          =         2.595652	       1.373560
	 R(7,13)          =         2.648929	       1.401753
	 R(8,11)          =         2.518927	       1.332959
	 R(8,12)          =         2.548755	       1.348743
	 R(8,13)          =         2.560559	       1.354990
	 R(10,18)         =         1.924121	       1.018201
	 R(11,19)         =         1.922403	       1.017292
	 R(11,20)         =         1.963610	       1.039098
	 R(12,21)         =         1.921941	       1.017048
	 R(12,22)         =         1.928378	       1.020454
	 R(13,23)         =         1.923612	       1.017932
	 B(1,2,4)         =         2.130166	     122.049500
	 B(1,2,15)        =         2.083000	     119.347089
	 B(1,3,5)         =         2.044431	     117.137296
	 B(1,3,16)        =         2.123200	     121.650415
	 B(2,1,3)         =         2.123992	     121.695786
	 B(2,1,14)        =         2.085329	     119.480526
	 B(2,4,6)         =         2.022939	     115.905857
	 B(2,4,17)        =         2.123176	     121.649014
	 B(3,1,14)        =         2.073860	     118.823438
	 B(3,5,6)         =         2.101936	     120.432078
	 B(3,5,9)         =         2.258063	     129.377506
	 B(4,2,15)        =         2.070020	     118.603393
	 B(4,6,5)         =         2.142809	     122.773897
	 B(4,6,10)        =         2.301738	     131.879875
	 B(5,3,16)        =         2.115511	     121.209835
	 B(5,6,10)        =         1.838568	     105.342173
	 B(5,9,7)         =         1.819867	     104.270691
	 B(6,4,17)        =         2.137059	     122.444455
	 B(6,5,9)         =         1.922984	     110.178859
	 B(6,10,7)        =         1.843137	     105.603971
	 B(6,10,18)       =         2.211890	     126.731979
	 B(7,10,18)       =         2.228077	     127.659407
	 B(7,13,8)        =         2.199295	     126.010345
	 B(7,13,23)       =         2.054552	     117.717136
	 B(8,11,19)       =         2.107995	     120.779203
	 B(8,11,20)       =         2.096612	     120.127046
	 B(8,12,21)       =         2.103356	     120.513397
	 B(8,12,22)       =         2.133737	     122.254134
	 B(8,13,23)       =         2.029241	     116.266937
	 B(9,7,10)        =         2.000076	     114.595892
	 B(9,7,13)        =         2.184814	     125.180634
	 B(10,7,13)       =         2.098295	     120.223440
	 B(11,8,12)       =         2.110091	     120.899318
	 B(11,8,13)       =         2.118176	     121.362562
	 B(12,8,13)       =         2.054905	     117.737366
	 B(19,11,20)      =         2.075525	     118.918829
	 B(21,12,22)      =         2.043755	     117.098548
	 D(1,2,4,6)       =         0.001437	       0.082351
	 D(1,2,4,17)      =         3.137936	     179.790493
	 D(1,3,5,6)       =         0.008285	       0.474686
	 D(1,3,5,9)       =         3.126042	     179.109018
	 D(2,1,3,5)       =         0.003006	       0.172238
	 D(2,1,3,16)      =         3.134766	     179.608861
	 D(2,4,6,5)       =         0.010177	       0.583111
	 D(2,4,6,10)      =         3.137003	     179.737026
	 D(3,1,2,4)       =        -0.008153	      -0.467161
	 D(3,1,2,15)      =         3.132574	     179.483245
	 D(3,5,6,4)       =        -0.015500	      -0.888068
	 D(3,5,6,10)      =         3.137494	     179.765151
	 D(3,5,9,7)       =        -3.135649	    -179.659478
	 D(4,2,1,14)      =         3.130221	     179.348439
	 D(4,6,5,9)       =        -3.137464	    -179.763433
	 D(4,6,10,7)      =        -3.137274	    -179.752549
	 D(4,6,10,18)     =        -0.008574	      -0.491263
	 D(5,3,1,14)      =        -3.135389	    -179.644537
	 D(5,6,4,17)      =        -3.126277	    -179.122483
	 D(5,6,10,7)      =        -0.008556	      -0.490232
[...]
	 D(1,3,5,6)       =         0.005404	       0.309610
	 D(1,3,5,9)       =         3.130073	     179.339984
	 D(2,1,3,5)       =        -0.003525	      -0.201957
	 D(2,1,3,16)      =         3.137716	     179.777861
	 D(2,4,6,5)       =        -0.000953	      -0.054608
	 D(2,4,6,10)      =         3.139489	     179.879483
	 D(3,1,2,4)       =        -0.000688	      -0.039446
	 D(3,1,2,15)      =        -3.141257	    -179.980746
	 D(3,5,6,4)       =        -0.003289	      -0.188422
	 D(3,5,6,10)      =         3.139186	     179.862083
	 D(3,5,9,7)       =        -3.136842	    -179.727786
	 D(4,2,1,14)      =         3.137991	     179.793633
	 D(4,6,5,9)       =        -3.131069	    -179.397058
	 D(4,6,10,7)      =         3.135149	     179.630804
	 D(4,6,10,18)     =        -0.073158	      -4.191627
	 D(5,3,1,14)      =         3.140996	     179.965818
	 D(5,6,4,17)      =        -3.141554	    -179.997759
	 D(5,6,10,7)      =        -0.007447	      -0.426674
	 D(5,6,10,18)     =         3.067432	     175.750895
	 D(5,9,7,10)      =         0.006066	       0.347541
	 D(5,9,7,13)      =        -3.123745	    -178.977393
	 D(6,4,2,15)      =        -3.139707	    -179.891978
	 D(6,5,3,16)      =        -3.135841	    -179.670427
	 D(6,5,9,7)       =        -0.010745	      -0.615624
	 D(6,10,7,9)      =         0.000987	       0.056534
	 D(6,10,7,13)     =         3.131170	     179.402810
	 D(7,13,8,11)     =        -0.068120	      -3.902966
	 D(7,13,8,12)     =         3.092005	     177.158822
	 D(8,13,7,9)      =         0.199601	      11.436311
	 D(8,13,7,10)     =        -2.929376	    -167.840908
	 D(9,5,3,16)      =        -0.011171	      -0.640054
	 D(9,5,6,10)      =         0.011405	       0.653446
	 D(9,7,10,18)     =        -3.072410	    -176.036116
	 D(9,7,13,23)     =        -2.731409	    -156.498200
	 D(10,6,4,17)     =        -0.001111	      -0.063667
	 D(10,7,13,23)    =         0.422799	      24.224581
	 D(11,8,12,21)    =        -0.082914	      -4.750598
	 D(11,8,12,22)    =         2.872436	     164.578438
	 D(11,8,13,23)    =         2.863673	     164.076400
	 D(12,8,11,19)    =        -0.167103	      -9.574314
	 D(12,8,11,20)    =         3.037906	     174.059210
	 D(12,8,13,23)    =        -0.259388	     -14.861811
	 D(13,7,10,18)    =         0.057773	       3.310160
	 D(13,8,11,19)    =         2.993821	     171.533331
	 D(13,8,11,20)    =        -0.084354	      -4.833145
	 D(13,8,12,21)    =         3.039712	     174.162679
	 D(13,8,12,22)    =        -0.288124	     -16.508285
	 D(14,1,2,15)     =        -0.002577	      -0.147667
	 D(14,1,3,16)     =        -0.000949	      -0.054364
	 D(15,2,4,17)     =         0.000903	       0.051738
	 R(9,11)          =         5.014241	       2.653422

	Current energy   :      -582.1570265489

	Energy change for the previous step:
		Projected    :        -0.0000008111
		Actual       :        -0.0000003331

	Performing BFGS update.
	Previous computed or guess Hessian on step 1.
	Steps to be used in Hessian update: 20 19
	Taking RFO optimization step.
	Going to follow RFO solution 1.
	Using RFO vector 1.
	Norm of target step-size    0.00213
	Projected energy change by RFO approximation:         0.0000000032

	Back-transformation to cartesian coordinates...
	Could not converge backtransformation.
	Using first guess instead.

	--- Internal Coordinate Step in ANG or DEG, aJ/ANG or AJ/DEG ---
	 ---------------------------------------------------------------------------
	   Coordinate                Previous        Force       Change         New 
	   ----------                --------       ------       ------       ------
	    1 H(9,20)         =      1.812978     0.000011     0.000079     1.813057
	    2 R(1,2)          =      1.416710    -0.000037    -0.000006     1.416705
	    3 R(1,3)          =      1.393069     0.000006     0.000004     1.393073
	    4 R(1,14)         =      1.095631    -0.000002     0.000001     1.095632
	    5 R(2,4)          =      1.394806    -0.000030    -0.000001     1.394805
	    6 R(2,15)         =      1.095830    -0.000003     0.000000     1.095831
	    7 R(3,5)          =      1.404920    -0.000034    -0.000007     1.404913
	    8 R(3,16)         =      1.094738    -0.000027    -0.000005     1.094733
	    9 R(4,6)          =      1.401357     0.000031     0.000005     1.401363
	   10 R(4,17)         =      1.095110    -0.000009    -0.000001     1.095109
	   11 R(5,6)          =      1.415755    -0.000049    -0.000018     1.415736
	   12 R(5,9)          =      1.387518     0.000074     0.000030     1.387548
	   13 R(6,10)         =      1.388724     0.000005     0.000012     1.388736
	   14 R(7,9)          =      1.313046    -0.000036    -0.000009     1.313037
	   15 R(7,10)         =      1.362675    -0.000071    -0.000009     1.362666
	   16 R(7,13)         =      1.406891    -0.000101    -0.000014     1.406877
	   17 R(8,11)         =      1.319744    -0.000014     0.000007     1.319751
	   18 R(8,12)         =      1.341680     0.000204     0.000025     1.341705
	   19 R(8,13)         =      1.357077    -0.000203    -0.000038     1.357039
	   20 R(10,18)        =      1.017437    -0.000022    -0.000001     1.017436
	   21 R(11,19)        =      1.017222     0.000043     0.000003     1.017226
	   22 R(11,20)        =      1.044309     0.000113     0.000027     1.044336
	   23 R(12,21)        =      1.016885     0.000012    -0.000001     1.016884
	   24 R(12,22)        =      1.016253     0.000141     0.000016     1.016268
	   25 R(13,23)        =      1.018193    -0.000158    -0.000020     1.018173
	   26 B(1,2,4)        =    121.871484    -0.000000     0.000373   121.871857
	   27 B(1,2,15)       =    119.066645     0.000000     0.000475   119.067120
	   28 B(1,3,5)        =    117.242284    -0.000000    -0.001242   117.241042
	   29 B(1,3,16)       =    121.893185    -0.000000     0.000181   121.893366
	   30 B(2,1,3)        =    121.649048    -0.000000    -0.000125   121.648923
	   31 B(2,1,14)       =    118.913497    -0.000000     0.000133   118.913630
	   32 B(2,4,6)        =    116.127331     0.000000     0.000049   116.127380
	   33 B(2,4,17)       =    121.476901    -0.000000    -0.001670   121.475231
	   34 B(3,1,14)       =    119.437248     0.000000    -0.000007   119.437240
	   35 B(3,5,6)        =    120.466812     0.000000     0.002276   120.469088
	   36 B(3,5,9)        =    129.801206     0.000000    -0.001218   129.799988
	   37 B(4,2,15)       =    119.061845    -0.000000    -0.000849   119.060996
	   38 B(4,6,5)        =    122.642294    -0.000000    -0.001332   122.640962
	   39 B(4,6,10)       =    132.277601     0.000000    -0.000277   132.277324
	   40 B(5,3,16)       =    120.864527     0.000000     0.001062   120.865589
	   41 B(5,6,10)       =    105.080080     0.000000     0.001613   105.081693
	   42 B(5,9,7)        =    104.789462     0.000000    -0.000769   104.788693
	   43 B(6,4,17)       =    122.395743     0.000000     0.001625   122.397368
	   44 B(6,5,9)        =    109.726211    -0.000000    -0.000973   109.725237
	   45 B(6,10,7)       =    106.282799     0.000000    -0.001558   106.281240
	   46 B(6,10,18)      =    125.955836    -0.000000    -0.003813   125.952023
	   47 B(7,10,18)      =    127.636201     0.000000     0.005124   127.641324
	   48 B(7,13,8)       =    124.248332     0.000001     0.002939   124.251270
	   49 B(7,13,23)      =    117.555369    -0.000000     0.002817   117.558186
	   50 B(8,11,19)      =    121.223459    -0.000000    -0.001667   121.221791
	   51 B(8,11,20)      =    116.756096    -0.000001    -0.002665   116.753431
	   52 B(8,12,21)      =    120.622010    -0.000001    -0.004927   120.617083
	   53 B(8,12,22)      =    121.514222     0.000001     0.006785   121.521008
	   54 B(8,13,23)      =    117.148927    -0.000000     0.004117   117.153044
	   55 B(9,7,10)       =    114.117259     0.000000     0.001815   114.119074
	   56 B(9,7,13)       =    124.359562    -0.000001    -0.004441   124.355121
	   57 B(10,7,13)      =    121.519663     0.000001     0.002684   121.522348
	   58 B(11,8,12)      =    122.129550    -0.000001    -0.002743   122.126807
	   59 B(11,8,13)      =    119.918918     0.000001     0.001117   119.920036
	   60 B(12,8,13)      =    117.942635    -0.000000     0.001814   117.944450
	   61 B(19,11,20)     =    121.916776     0.000001     0.004399   121.921175
	   62 B(21,12,22)     =    117.044610     0.000001     0.007548   117.052158
	   63 D(1,2,4,6)      =      0.166719    -0.000000    -0.001427     0.165292
	   64 D(1,2,4,17)     =   -179.889565     0.000000     0.003586  -179.885979
	   65 D(1,3,5,6)      =      0.309610     0.000000     0.000917     0.310527
	   66 D(1,3,5,9)      =    179.339984     0.000000     0.008037   179.348021
	   67 D(2,1,3,5)      =     -0.201957    -0.000000    -0.000737    -0.202694
	   68 D(2,1,3,16)     =    179.777861     0.000000     0.002291   179.780152
	   69 D(2,4,6,5)      =     -0.054608     0.000000     0.001627    -0.052982
	   70 D(2,4,6,10)     =    179.879483     0.000000     0.006103   179.885586
	   71 D(3,1,2,4)      =     -0.039446     0.000000     0.001051    -0.038395
	   72 D(3,1,2,15)     =   -179.980746     0.000000     0.002701  -179.978045
	   73 D(3,5,6,4)      =     -0.188422    -0.000000    -0.001430    -0.189852
	   74 D(3,5,6,10)     =    179.862083    -0.000000    -0.004860   179.857223
	   75 D(3,5,9,7)      =   -179.727786     0.000000     0.001681  -179.726104
	   76 D(4,2,1,14)     =    179.793633     0.000000     0.001533   179.795165
	   77 D(4,6,5,9)      =   -179.397058    -0.000000    -0.007232  -179.404291
	   78 D(4,6,10,7)     =    179.630804     0.000000     0.004824   179.635628
	   79 D(4,6,10,18)    =     -4.191627     0.000000     0.001285    -4.190343
	   80 D(5,3,1,14)     =    179.965818    -0.000000    -0.001221   179.964597
	   81 D(5,6,4,17)     =   -179.997759    -0.000000    -0.003435  -180.001194
	   82 D(5,6,10,7)     =     -0.426674     0.000000     0.008726    -0.417948
	   83 D(5,6,10,18)    =    175.750895     0.000000     0.005187   175.756082
	   84 D(5,9,7,10)     =      0.347541    -0.000000    -0.002554     0.344987
	   85 D(5,9,7,13)     =   -178.977393    -0.000000    -0.008238  -178.985631
	   86 D(6,4,2,15)     =   -179.891978    -0.000000    -0.003076  -179.895055
	   87 D(6,5,3,16)     =   -179.670427    -0.000000    -0.002078  -179.672505
	   88 D(6,5,9,7)      =     -0.615624     0.000000     0.008227    -0.607397
	   89 D(6,10,7,9)     =      0.056534    -0.000000    -0.004120     0.052415
	   90 D(6,10,7,13)    =    179.402810     0.000000     0.001333   179.404143
	   91 D(7,13,8,11)    =     -3.902966    -0.000000    -0.018747    -3.921713
	   92 D(7,13,8,12)    =    177.158822    -0.000000    -0.030032   177.128790
	   93 D(8,13,7,9)     =     11.436311     0.000000     0.033116    11.469427
	   94 D(8,13,7,10)    =   -167.840908     0.000000     0.027040  -167.813868
	   95 D(9,5,3,16)     =     -0.640054     0.000000     0.005042    -0.635012
	   96 D(9,5,6,10)     =      0.653446    -0.000000    -0.010662     0.642784
	   97 D(9,7,10,18)    =   -176.036116     0.000000    -0.000042  -176.036158
	   98 D(9,7,13,23)    =   -156.498200    -0.000000    -0.023682  -156.521881
	   99 D(10,6,4,17)    =     -0.063667    -0.000000     0.001041    -0.062626
	  100 D(10,7,13,23)   =     24.224581    -0.000000    -0.029758    24.194823
	  101 D(11,8,12,21)   =     -4.750598    -0.000000    -0.062794    -4.813392
	  102 D(11,8,12,22)   =    164.578438    -0.000000    -0.001156   164.577282
	  103 D(11,8,13,23)   =    164.076400     0.000000     0.037697   164.114098
	  104 D(12,8,11,19)   =     -9.574314     0.000000    -0.000550    -9.574864
	  105 D(12,8,11,20)   =    174.059210    -0.000000    -0.001891   174.057319
	  106 D(12,8,13,23)   =    -14.861811     0.000000     0.026412   -14.835400
	  107 D(13,7,10,18)   =      3.310160     0.000000     0.005410     3.315569
	  108 D(13,8,11,19)   =    171.533331    -0.000000    -0.012375   171.520956
	  109 D(13,8,11,20)   =     -4.833145    -0.000000    -0.013716    -4.846860
	  110 D(13,8,12,21)   =    174.162679    -0.000000    -0.051199   174.111480
	  111 D(13,8,12,22)   =    -16.508285    -0.000000     0.010439   -16.497846
	  112 D(14,1,2,15)    =     -0.147667     0.000000     0.003183    -0.144485
	  113 D(14,1,3,16)    =     -0.054364     0.000000     0.001807    -0.052557
	  114 D(15,2,4,17)    =      0.051738     0.000000     0.001937     0.053675
	  115 R(9,11)         =      2.653422    -0.000008     0.000061     2.653483
	 ---------------------------------------------------------------------------
	Successfully symmetrized geometry.

  ==> Convergence Check <==

  Measures of convergence in internal coordinates in au.
  Criteria marked as inactive (o), active & met (*), and active & unmet ( ).
  ---------------------------------------------------------------------------------------------
   Step     Total Energy     Delta E     MAX Force     RMS Force      MAX Disp      RMS Disp   
  ---------------------------------------------------------------------------------------------
    Convergence Criteria    1.00e-06 *    3.00e-04 *             o    1.20e-03 *             o
  ---------------------------------------------------------------------------------------------
     21    -582.15702655   -3.33e-07 *    2.47e-05 *    6.18e-06 o    1.10e-03 *    1.98e-04 o  ~
  ---------------------------------------------------------------------------------------------


  **** Optimization is complete! (in 21 steps) ****

  ==> Optimization Summary <==

  Measures of convergence in internal coordinates in au.
  --------------------------------------------------------------------------------------------------------------- ~
   Step         Total Energy             Delta E       MAX Force       RMS Force        MAX Disp        RMS Disp  ~
  --------------------------------------------------------------------------------------------------------------- ~
      1    -582.146838702714   -582.146838702714      0.02785501      0.00633117      0.09190980      0.03245115  ~
      2    -582.154468008250     -0.007629305536      0.01292951      0.00248560      0.10682674      0.01961778  ~
      3    -582.155921387596     -0.001453379346      0.00405705      0.00082391      0.14641733      0.02237527  ~
      4    -582.156508449083     -0.000587061486      0.00381971      0.00076501      0.08563593      0.01321509  ~
      5    -582.156736631655     -0.000228182572      0.00198782      0.00041961      0.03960915      0.00760267  ~
      6    -582.156825589988     -0.000088958333      0.00105066      0.00022409      0.01556228      0.00324599  ~
      7    -582.156836912437     -0.000011322449      0.00027501      0.00009244      0.00716051      0.00184197  ~
      8    -582.156843053979     -0.000006141542      0.00034245      0.00006097      0.00917349      0.00152448  ~
      9    -582.156845916714     -0.000002862735      0.00028861      0.00005745      0.01993050      0.00311857  ~
     10    -582.156850288831     -0.000004372117      0.00017927      0.00004589      0.03847658      0.00590066  ~
     11    -582.156857192843     -0.000006904013      0.00033232      0.00006036      0.07547489      0.01210911  ~
     12    -582.156867487362     -0.000010294519      0.00147335      0.00017100      0.07484095      0.01331498  ~
     13    -582.156880368270     -0.000012880908      0.00218949      0.00026683      0.08707837      0.01711058  ~
     14    -582.156906804879     -0.000026436609      0.00320452      0.00043885      0.06748768      0.01218723  ~
     15    -582.156942038646     -0.000035233767      0.00432898      0.00052185      0.02815672      0.00583718  ~
     16    -582.156992003733     -0.000049965088      0.00090983      0.00015272      0.07539250      0.01406530  ~
     17    -582.157006903905     -0.000014900172      0.00072750      0.00011544      0.06811414      0.00985150  ~
     18    -582.157013809982     -0.000006906077      0.00124060      0.00017993      0.02853256      0.00436794  ~
     19    -582.157023997781     -0.000010187800      0.00041464      0.00006783      0.00917219      0.00199465  ~
     20    -582.157026215811     -0.000002218030      0.00011943      0.00002561      0.00349116      0.00063553  ~
     21    -582.157026548872     -0.000000333060      0.00002474      0.00000618      0.00109596      0.00019842  ~
  --------------------------------------------------------------------------------------------------------------- ~

	Writing optimization data to binary file.
	Final energy is   -582.1570265488717
	Final (previous) structure:
	Cartesian Geometry (in Angstrom)
	    C    -0.0265790437   0.9708197767  -3.5123810954
	    C    -1.4301130522   0.8020526698  -3.4192244405
	    C     0.8124422251   0.7283085500  -2.4270826146
	    C    -2.0449419075   0.3843346985  -2.2389784987
	    C     0.2094097736   0.3117277203  -1.2284950254
	    C    -1.1943949365   0.1452239364  -1.1512291333
	    C    -0.2226078587  -0.3378573669   0.7641991534
	    C     1.0358181651  -0.5816511352   2.8443238878
	    N     0.7869530781  -0.0093298574  -0.0084245048
	    N    -1.4379413994  -0.2688694280   0.1517544545
	    N     2.1380426078  -0.1355528107   2.2717669906
	    N     0.9958852633  -0.9327531181   4.1386332828
	    N    -0.0992788473  -0.7179752171   2.1131402882
	    H     0.4055996455   1.2978064404  -4.4645935399
	    H    -2.0502806572   1.0045260144  -4.2997017822
	    H     1.8977788119   0.8539860589  -2.4956389370
	    H    -3.1303979337   0.2542670602  -2.1746936282
	    H    -2.3532778675  -0.4228628393   0.5684357651
	    H     2.9618793558   0.0951592107   2.8220456088
	    H     2.1010422790   0.0227302513   1.2401865233
	    H     1.8424137353  -0.9313800724   4.7020531623
	    H     0.1141945153  -1.0521915688   4.6296782584
	    H    -0.8433290142  -1.2871822480   2.5120260977
	Saving final (previous) structure.
			--------------------------
			 OPTKING Finished Execution 
			--------------------------

    Final optimized geometry and variables:
    Molecular point group: c1
    Full point group: C1

    Geometry (in Angstrom), charge = 1, multiplicity = 1:

    C           -0.026579043693     0.970819776701    -3.512381095388
    C           -1.430113052213     0.802052669763    -3.419224440460
    C            0.812442225052     0.728308549993    -2.427082614565
    C           -2.044941907514     0.384334698525    -2.238978498746
    C            0.209409773561     0.311727720252    -1.228495025413
    C           -1.194394936548     0.145223936364    -1.151229133326
    C           -0.222607858726    -0.337857366943     0.764199153382
    C            1.035818165078    -0.581651135190     2.844323887769
    N            0.786953078099    -0.009329857381    -0.008424504751
    N           -1.437941399402    -0.268869428049     0.151754454464
    N            2.138042607827    -0.135552810682     2.271766990622
    N            0.995885263322    -0.932753118125     4.138633282799
    N           -0.099278847264    -0.717975217138     2.113140288158
    H            0.405599645526     1.297806440376    -4.464593539902
    H           -2.050280657232     1.004526014448    -4.299701782204
    H            1.897778811937     0.853986058895    -2.495638936979
    H           -3.130397933698     0.254267060157    -2.174693628190
    H           -2.353277867465    -0.422862839284     0.568435765106
    H            2.961879355776     0.095159210673     2.822045608847
    H            2.101042279006     0.022730251259     1.240186523321
    H            1.842413735326    -0.931380072397     4.702053162290
    H            0.114194515279    -1.052191568760     4.629678258413
    H           -0.843329014242    -1.287182247959     2.512026097675

	Cleaning optimization helper files.

*** Psi4 exiting successfully. Buy a developer a beer!
